   24
Geometry Step: 0
    C     10.31777907     13.63375974      9.00000000
    C      9.64239547     14.93228217      9.00000000
    C     14.57375071      9.70559868      9.00000000
    C     14.81446480     11.68202652      9.00000000
    C      8.84687726      8.86311188      9.00000000
    C     12.60963876      8.24755050      9.00000000
    C     13.96917704      8.43081825      9.00000000
    C     14.13787836     12.98375798      9.00000000
    C     11.29791487     10.42098370      9.00000000
    C      9.73665772     12.46482108      9.00000000
    C     12.31593908     15.31212086      9.00000000
    C     13.70783407     10.77560551      9.00000000
    C     15.71359442     10.61240350      9.00000000
    C     12.38184488     11.24722013      9.00000000
    C     14.76352059     14.24221810      9.00000000
    C     10.08017598     11.03543380      9.00000000
    C      8.17258956     12.51893182      9.00000000
    C     11.40144505      9.01699172      9.00000000
    C     10.13316225      8.22436386      9.00000000
    C      7.54917708     11.13213838      9.00000000
    C     11.34091129     12.93643590      9.00000000
    C     12.67415528     12.63249459      9.00000000
    C     12.00192315     13.93401359      9.00000000
    C      8.77089812     10.30679492      9.00000000
