
  ___ ___ ___ _ _ _  
 |   |   |_  | | | | 
 | | | | | . | | | | 
 |__ |  _|___|_____|  1.3.1b1
 |___|_|             

User:   mkb@s91n12.grendel.cscaa.dk
Date:   Fri Mar 23 10:13:43 2018
Arch:   x86_64
Pid:    423519
Python: 2.7.13
gpaw:   /home/mkb/gpaw/gpaw
_gpaw:  /home/mkb/gpaw/build/bin.linux-x86_64-2.7/gpaw-python
ase:    /home/mkb/ase/ase (version 3.15.1b1)
numpy:  /comm/swstack/core/python/2.7.13/lib/python2.7/site-packages/numpy (version 1.13.3)
scipy:  /comm/swstack/core/python/2.7.13/lib/python2.7/site-packages/scipy (version 0.19.1)
units:  Angstrom and eV
cores:  36
Extra parameters: {'blacs': True}

Input parameters:
  basis: dzp
  gpts: [120 120  88]
  kpts: [1 1 1]
  maxiter: 99
  mixer: {backend: pulay,
          beta: 0.05,
          method: separate,
          nmaxold: 5,
          weight: 75}
  mode: lcao
  nbands: -50
  occupations: {name: fermi-dirac,
                width: 0.1}
  poissonsolver: {eps: 1e-07,
                  name: fd,
                  nn: 3,
                  relax: GS}
  xc: PBE

System changes: positions, numbers, cell, pbc, initial_charges, initial_magmoms 

Initialize ...

C-setup:
  name: Carbon
  id: 4aa54d4b901d75f77cc0ea3eec22967b
  Z: 6
  valence: 4
  core: 2
  charge: 0.0
  file: /home/esb/DFT/gpaw-setups-0.8.7929/C.PBE.gz
  cutoffs: 0.64(comp), 1.14(filt), 1.14(core), lmax=2
  valence states:
                energy  radius
    2s(2.00)   -13.751   0.635
    2p(2.00)    -5.284   0.635
    *s          13.461   0.635
    *p          21.927   0.635
    *d           0.000   0.635

  LCAO basis set for C:
    Name: dzp
    File: /home/esb/DFT/gpaw-setups-0.8.7929/C.dzp.basis.gz
    Number of radial functions: 5
    Number of spherical harmonics: 13
      l=0, rc=5.5469 Bohr: 2s-sz confined orbital
      l=1, rc=6.6719 Bohr: 2p-sz confined orbital
      l=0, rc=3.0312 Bohr: 2s-dz split-valence wave
      l=1, rc=3.7500 Bohr: 2p-dz split-valence wave
      l=2, rc=6.6719 Bohr: d-type Gaussian polarization

Reference energy: -13359.165501

Spin-paired calculation

Occupation numbers:
  Fermi-Dirac: width=0.1000 eV

Convergence criteria:
  Maximum total energy change: 0.0005 eV / electron
  Maximum integral of absolute density change: 0.0001 electrons
  Maximum integral of absolute eigenstate change: 4e-08 eV^2
  Maximum number of iterations: 99

Symmetries present (total): 1

  ( 1  0  0)
  ( 0  1  0)
  ( 0  0  1)

1 k-point (Gamma)
1 k-point in the irreducible part of the Brillouin zone
       k-points in crystal coordinates                weights
   0:     0.00000000    0.00000000    0.00000000          1/1

Wave functions: LCAO
  Diagonalizer: Serial LAPACK
  Atomic Correction: dense with blas
  Datatype: float
  Eigensolver: None 

LCAO using direct dense diagonalizer 

Densities:
  Coarse grid: 120*120*88 grid
  Fine grid: 240*240*176 grid
  Total Charge: 0.000000 

Density mixing:
  Method: separate
  Backend: pulay
  Linear mixing parameter: 0.05
  Mixing with 5 old densities
  Damping of long wave oscillations: 75 

Hamiltonian:
  XC and Coulomb potentials evaluated on a 240*240*176 grid
  Using the PBE Exchange-Correlation functional
  Interpolation: tri-quintic (5. degree polynomial)
  Poisson solver: Gauss-Seidel solver with 5 multi-grid levels
    Coarsest grid: 15 x 15 x 11 points
    Stencil: 6*3+1=19 point O(h^6) finite-difference Laplacian
    Max iterations: 1000
    Tolerance: 1.000000e-07 

Memory estimate:
  Process memory now: 217.70 MiB
  Calculator: 19.91 MiB
    Density: 9.40 MiB
      Arrays: 6.69 MiB
      Localized functions: 0.21 MiB
      Mixer: 2.50 MiB
    Hamiltonian: 9.40 MiB
      Arrays: 4.38 MiB
      XC: 0.00 MiB
      Poisson: 5.01 MiB
      vbar: 0.02 MiB
    Wavefunctions: 1.11 MiB
      C [qnM]: 0.10 MiB
      S, T [2 x qmm]: 0.44 MiB
      P [aqMi]: 0.00 MiB
      TCI: 0.00 MiB
      BasisFunctions: 0.57 MiB
      Eigensolver: 0.00 MiB

Total number of cores used: 36
Domain decomposition: 3 x 4 x 3

Number of atoms: 13
Number of atomic orbitals: 169
Number of bands in calculation: 76
Bands to converge: occupied states only
Number of valence electrons: 52

... initialized

Initializing position-dependent things.

Density initialized from atomic densities
                .----------------------------------------------------------.  
               /|                                                          |  
              / |                                                          |  
             /  |                                                          |  
            /   |                                                          |  
           /    |                                                          |  
          /     |                                                          |  
         /      |                                                          |  
        /       |                                                          |  
       /        |                                                          |  
      /         |                                                          |  
     /          |                                                          |  
    /           |                                                          |  
   /            |                                                          |  
  /             |                                                          |  
 *              |                                                          |  
 |              |                                                          |  
 |              |                C     C  C C                              |  
 |              |             C     C    C                                 |  
 |              |                       C                                  |  
 |              |                      C                                   |  
 |              |                   CC                                     |  
 |              .-----------------C----------------------------------------.  
 |             /                 C                                        /   
 |            /                                                          /    
 |           /                                                          /     
 |          /                                                          /      
 |         /                                                          /       
 |        /                                                          /        
 |       /                                                          /         
 |      /                                                          /          
 |     /                                                          /           
 |    /                                                          /            
 |   /                                                          /             
 |  /                                                          /              
 | /                                                          /               
 |/                                                          /                
 *----------------------------------------------------------*                 

Positions:
   0 C     12.632318   10.320442    8.885035
   1 C     13.162313   14.154632    8.904719
   2 C     11.973501   13.417939    9.371677
   3 C     12.231644    7.742211    8.827631
   4 C     12.978340   12.869282    8.901791
   5 C     12.746910   11.626749    8.898762
   6 C     10.806462   13.105801    8.762376
   7 C      9.704745   12.692114    9.582620
   8 C     12.448851    9.030006    8.856514
   9 C      8.487809   12.260259    8.991288
  10 C     13.756580   15.341110    8.921727
  11 C     11.751315    5.134882    8.729178
  12 C     11.961747    6.467377    8.790969

Unit cell:
           periodic     x           y           z      points  spacing
  1. axis:    no    24.000000    0.000000    0.000000   120     0.2000
  2. axis:    no     0.000000   24.000000    0.000000   120     0.2000
  3. axis:    no     0.000000    0.000000   18.000000    88     0.2045

  Lengths:  24.000000  24.000000  18.000000
  Angles:   90.000000  90.000000  90.000000

Effective grid spacing dv^(1/3) = 0.2015

                     log10-error:    total        iterations:
           time      wfs    density  energy       fermi  poisson
iter:   1  10:13:44          +inf   -88.379530    3      6      
iter:   2  10:13:45         -0.86   -87.759948    3      3      
iter:   3  10:13:45         -0.89   -86.872614    34     3      
iter:   4  10:13:46         -0.95   -86.443763    3      2      
iter:   5  10:13:46         -1.02   -85.792825    5      3      
iter:   6  10:13:47         -1.33   -85.633880    4      3      
iter:   7  10:13:47         -1.55   -85.581521    3      3      
iter:   8  10:13:48         -1.73   -85.579487    3      3      
iter:   9  10:13:48         -1.86   -85.541490    4      2      
iter:  10  10:13:49         -2.09   -85.541329    3      2      
iter:  11  10:13:49         -2.33   -85.544008    3      2      
iter:  12  10:13:50         -2.45   -85.543554    2      2      
iter:  13  10:13:50         -2.51   -85.543577    3      2      
iter:  14  10:13:51         -2.62   -85.542820    3      2      
iter:  15  10:13:51         -2.76   -85.542007    3      2      
iter:  16  10:13:52         -2.94   -85.541483    2      2      
iter:  17  10:13:52         -3.29   -85.540960    2      1      
iter:  18  10:13:53         -3.39   -85.540554    2      1      
iter:  19  10:13:53         -3.44   -85.537048    2      1      
iter:  20  10:13:54         -3.68   -85.540556    2      1      
iter:  21  10:13:54         -3.65   -85.540129    2      1      
iter:  22  10:13:54         -3.69   -85.541048    2      1      
iter:  23  10:13:55         -3.69   -85.540978    2      1      
iter:  24  10:13:55         -3.67   -85.540459    2      1      
iter:  25  10:13:56         -3.63   -85.543386    2      1      
iter:  26  10:13:56         -3.80   -85.540287    2      1      
iter:  27  10:13:57         -4.04   -85.541521    2      1      

Converged after 27 iterations.

Dipole moment: (0.344132, 0.782883, 0.055960) |e|*Ang

Energy contributions relative to reference atoms: (reference = -13359.165501)

Kinetic:        +84.519317
Potential:      -81.909344
External:        +0.000000
XC:             -89.570133
Entropy (-ST):   -0.213428
Local:           +1.525353
--------------------------
Free energy:    -85.648234
Extrapolated:   -85.541521

Fermi level: -5.97699

 Band  Eigenvalues  Occupancy
    0    -27.41180    2.00000
    1    -21.86977    2.00000
    2    -21.29469    2.00000
    3    -20.78952    2.00000
    4    -19.94464    2.00000
    5    -19.14261    2.00000
    6    -18.34619    2.00000
    7    -18.04935    2.00000
    8    -16.51083    2.00000
    9    -15.08436    2.00000
   10    -14.61560    2.00000
   11    -13.91024    2.00000
   12    -12.00205    2.00000
   13    -11.32379    2.00000
   14    -10.21891    2.00000
   15    -10.00518    2.00000
   16     -9.61624    2.00000
   17     -8.90266    2.00000
   18     -8.51764    2.00000
   19     -8.40720    2.00000
   20     -8.02269    2.00000
   21     -7.85877    2.00000
   22     -7.30401    2.00000
   23     -6.94423    1.99987
   24     -6.57512    1.99496
   25     -6.12727    1.63599
   26     -5.80287    0.29832
   27     -5.64658    0.07086
   28     -4.71006    0.00001
   29     -4.07123    0.00000
   30     -3.56424    0.00000
   31     -3.20652    0.00000
   32     -2.73284    0.00000
   33     -1.10669    0.00000
   34     -0.60382    0.00000
   35     -0.28998    0.00000
   36      1.41622    0.00000
   37      2.62567    0.00000
   38      3.06914    0.00000
   39      3.49437    0.00000
   40      3.92482    0.00000
   41      4.41059    0.00000
   42      5.24012    0.00000
   43      5.68935    0.00000
   44      6.19469    0.00000
   45      6.41166    0.00000
   46      7.11216    0.00000
   47      7.15561    0.00000
   48      7.41154    0.00000
   49      7.88811    0.00000
   50      8.17279    0.00000
   51      8.41075    0.00000
   52      8.55829    0.00000
   53      8.68254    0.00000
   54      8.93371    0.00000
   55      9.09866    0.00000
   56      9.33963    0.00000
   57      9.47815    0.00000
   58      9.56023    0.00000
   59      9.62681    0.00000
   60      9.95253    0.00000
   61     10.16149    0.00000
   62     10.48155    0.00000
   63     10.65763    0.00000
   64     10.89747    0.00000
   65     10.97690    0.00000
   66     11.60914    0.00000
   67     11.77639    0.00000
   68     11.79998    0.00000
   69     11.99803    0.00000
   70     12.65821    0.00000
   71     12.80302    0.00000
   72     13.12633    0.00000
   73     13.23545    0.00000
   74     13.40550    0.00000
   75     13.89874    0.00000

Timing:                              incl.     excl.
-----------------------------------------------------------
Basic WFS set positions:             0.000     0.000   0.0% |
Basis functions set positions:       0.013     0.013   0.1% |
LCAO WFS Initialize:                 0.525     0.013   0.1% |
 Hamiltonian:                        0.512     0.000   0.0% |
  Atomic:                            0.000     0.000   0.0% |
   XC Correction:                    0.000     0.000   0.0% |
  Calculate atomic Hamiltonians:     0.000     0.000   0.0% |
  Communicate:                       0.042     0.042   0.3% |
  Hartree integrate/restrict:        0.007     0.007   0.1% |
  Initialize Hamiltonian:            0.002     0.002   0.0% |
  Poisson:                           0.296     0.296   2.2% ||
  XC 3D grid:                        0.162     0.162   1.2% |
  vbar:                              0.002     0.002   0.0% |
SCF-cycle:                          12.605     0.013   0.1% |
 Density:                            2.398     0.001   0.0% |
  Atomic density matrices:           2.136     2.136  15.7% |-----|
  Mix:                               0.243     0.243   1.8% ||
  Multipole moments:                 0.005     0.005   0.0% |
  Normalize:                         0.002     0.002   0.0% |
  Pseudo density:                    0.011     0.004   0.0% |
   Calculate density matrix:         0.007     0.007   0.0% |
   Construct density:                0.000     0.000   0.0% |
   Symmetrize density:               0.000     0.000   0.0% |
 Hamiltonian:                        7.913     0.003   0.0% |
  Atomic:                            0.005     0.005   0.0% |
   XC Correction:                    0.000     0.000   0.0% |
  Calculate atomic Hamiltonians:     0.008     0.008   0.1% |
  Communicate:                       1.100     1.100   8.1% |--|
  Hartree integrate/restrict:        0.180     0.180   1.3% ||
  Poisson:                           2.364     2.364  17.4% |------|
  XC 3D grid:                        4.205     4.205  30.9% |-----------|
  vbar:                              0.048     0.048   0.4% |
 LCAO eigensolver:                   2.281     0.002   0.0% |
  Calculate projections:             0.000     0.000   0.0% |
  DenseAtomicCorrection:             0.001     0.001   0.0% |
  Distribute overlap matrix:         2.108     2.108  15.5% |-----|
  Orbital Layouts:                   0.169     0.169   1.2% |
  Potential matrix:                  0.002     0.002   0.0% |
Set symmetry:                        0.094     0.094   0.7% |
TCI: Calculate S, T, P:              0.003     0.003   0.0% |
TCI: Evaluate splines:               0.063     0.063   0.5% |
Other:                               0.296     0.296   2.2% ||
-----------------------------------------------------------
Total:                                        13.599 100.0%

Memory usage: 217.70 MiB
Date: Fri Mar 23 10:13:57 2018
