
  ___ ___ ___ _ _ _  
 |   |   |_  | | | | 
 | | | | | . | | | | 
 |__ |  _|___|_____|  1.3.1b1
 |___|_|             

User:   mkb@s91n12.grendel.cscaa.dk
Date:   Fri Mar 23 10:05:50 2018
Arch:   x86_64
Pid:    423519
Python: 2.7.13
gpaw:   /home/mkb/gpaw/gpaw
_gpaw:  /home/mkb/gpaw/build/bin.linux-x86_64-2.7/gpaw-python
ase:    /home/mkb/ase/ase (version 3.15.1b1)
numpy:  /comm/swstack/core/python/2.7.13/lib/python2.7/site-packages/numpy (version 1.13.3)
scipy:  /comm/swstack/core/python/2.7.13/lib/python2.7/site-packages/scipy (version 0.19.1)
units:  Angstrom and eV
cores:  36
Extra parameters: {'blacs': True}

Input parameters:
  basis: dzp
  gpts: [120 120  88]
  kpts: [1 1 1]
  maxiter: 99
  mixer: {backend: pulay,
          beta: 0.05,
          method: separate,
          nmaxold: 5,
          weight: 75}
  mode: lcao
  nbands: -50
  occupations: {name: fermi-dirac,
                width: 0.1}
  poissonsolver: {eps: 1e-07,
                  name: fd,
                  nn: 3,
                  relax: GS}
  xc: PBE

System changes: positions, numbers, cell, pbc, initial_charges, initial_magmoms 

Initialize ...

C-setup:
  name: Carbon
  id: 4aa54d4b901d75f77cc0ea3eec22967b
  Z: 6
  valence: 4
  core: 2
  charge: 0.0
  file: /home/esb/DFT/gpaw-setups-0.8.7929/C.PBE.gz
  cutoffs: 0.64(comp), 1.14(filt), 1.14(core), lmax=2
  valence states:
                energy  radius
    2s(2.00)   -13.751   0.635
    2p(2.00)    -5.284   0.635
    *s          13.461   0.635
    *p          21.927   0.635
    *d           0.000   0.635

  LCAO basis set for C:
    Name: dzp
    File: /home/esb/DFT/gpaw-setups-0.8.7929/C.dzp.basis.gz
    Number of radial functions: 5
    Number of spherical harmonics: 13
      l=0, rc=5.5469 Bohr: 2s-sz confined orbital
      l=1, rc=6.6719 Bohr: 2p-sz confined orbital
      l=0, rc=3.0312 Bohr: 2s-dz split-valence wave
      l=1, rc=3.7500 Bohr: 2p-dz split-valence wave
      l=2, rc=6.6719 Bohr: d-type Gaussian polarization

Reference energy: -13359.165501

Spin-paired calculation

Occupation numbers:
  Fermi-Dirac: width=0.1000 eV

Convergence criteria:
  Maximum total energy change: 0.0005 eV / electron
  Maximum integral of absolute density change: 0.0001 electrons
  Maximum integral of absolute eigenstate change: 4e-08 eV^2
  Maximum number of iterations: 99

Symmetries present (total): 1

  ( 1  0  0)
  ( 0  1  0)
  ( 0  0  1)

1 k-point (Gamma)
1 k-point in the irreducible part of the Brillouin zone
       k-points in crystal coordinates                weights
   0:     0.00000000    0.00000000    0.00000000          1/1

Wave functions: LCAO
  Diagonalizer: Serial LAPACK
  Atomic Correction: dense with blas
  Datatype: float
  Eigensolver: None 

LCAO using direct dense diagonalizer 

Densities:
  Coarse grid: 120*120*88 grid
  Fine grid: 240*240*176 grid
  Total Charge: 0.000000 

Density mixing:
  Method: separate
  Backend: pulay
  Linear mixing parameter: 0.05
  Mixing with 5 old densities
  Damping of long wave oscillations: 75 

Hamiltonian:
  XC and Coulomb potentials evaluated on a 240*240*176 grid
  Using the PBE Exchange-Correlation functional
  Interpolation: tri-quintic (5. degree polynomial)
  Poisson solver: Gauss-Seidel solver with 5 multi-grid levels
    Coarsest grid: 15 x 15 x 11 points
    Stencil: 6*3+1=19 point O(h^6) finite-difference Laplacian
    Max iterations: 1000
    Tolerance: 1.000000e-07 

Memory estimate:
  Process memory now: 212.61 MiB
  Calculator: 19.91 MiB
    Density: 9.40 MiB
      Arrays: 6.69 MiB
      Localized functions: 0.21 MiB
      Mixer: 2.50 MiB
    Hamiltonian: 9.40 MiB
      Arrays: 4.38 MiB
      XC: 0.00 MiB
      Poisson: 5.01 MiB
      vbar: 0.02 MiB
    Wavefunctions: 1.11 MiB
      C [qnM]: 0.10 MiB
      S, T [2 x qmm]: 0.44 MiB
      P [aqMi]: 0.00 MiB
      TCI: 0.00 MiB
      BasisFunctions: 0.57 MiB
      Eigensolver: 0.00 MiB

Total number of cores used: 36
Domain decomposition: 3 x 4 x 3

Number of atoms: 13
Number of atomic orbitals: 169
Number of bands in calculation: 76
Bands to converge: occupied states only
Number of valence electrons: 52

... initialized

Initializing position-dependent things.

Density initialized from atomic densities
                .----------------------------------------------------------.  
               /|                                                          |  
              / |                                                          |  
             /  |                                                          |  
            /   |                                                          |  
           /    |                                                          |  
          /     |                                                          |  
         /      |                                                          |  
        /       |                                                          |  
       /        |                                                          |  
      /         |                                                          |  
     /          |                                                          |  
    /           |                                                          |  
   /            |                                                          |  
  /             |                                                          |  
 *              |                                                          |  
 |              |                           C                              |  
 |              |              C           C                               |  
 |              |            C C          C                                |  
 |              |            C          CC                                 |  
 |              |                      C                                   |  
 |              |                    C                                     |  
 |              .------------------C---------------------------------------.  
 |             /                  C                                       /   
 |            /                                                          /    
 |           /                                                          /     
 |          /                                                          /      
 |         /                                                          /       
 |        /                                                          /        
 |       /                                                          /         
 |      /                                                          /          
 |     /                                                          /           
 |    /                                                          /            
 |   /                                                          /             
 |  /                                                          /              
 | /                                                          /               
 |/                                                          /                
 *----------------------------------------------------------*                 

Positions:
   0 C     13.283449   10.728831    8.885035
   1 C     13.458693   14.526884    8.904719
   2 C      8.783191   13.727263    9.371677
   3 C     12.738626    7.822143    8.827631
   4 C     13.470380   13.260608    8.901791
   5 C     13.410382   11.992224    8.898762
   6 C      8.067274   12.662160    8.762376
   7 C      9.207415   12.414165    9.582620
   8 C     13.046658    9.390628    8.856514
   9 C      8.542488   11.342407    8.991288
  10 C     13.348076   15.846621    8.921727
  11 C     12.035068    4.804108    8.729178
  12 C     12.376225    6.291662    8.790969

Unit cell:
           periodic     x           y           z      points  spacing
  1. axis:    no    24.000000    0.000000    0.000000   120     0.2000
  2. axis:    no     0.000000   24.000000    0.000000   120     0.2000
  3. axis:    no     0.000000    0.000000   18.000000    88     0.2045

  Lengths:  24.000000  24.000000  18.000000
  Angles:   90.000000  90.000000  90.000000

Effective grid spacing dv^(1/3) = 0.2015

                     log10-error:    total        iterations:
           time      wfs    density  energy       fermi  poisson
iter:   1  10:05:51          +inf   -86.985701    3      6      
iter:   2  10:05:52         -0.86   -86.128860    2      3      
iter:   3  10:05:52         -0.89   -85.192530    4      3      
iter:   4  10:05:53         -0.99   -84.822426    3      3      
iter:   5  10:05:53         -1.06   -84.267900    5      4      
iter:   6  10:05:54         -1.46   -84.891280    4      3      
iter:   7  10:05:54         -1.28   -84.126881    4      3      
iter:   8  10:05:55         -1.83   -84.117513    2      2      
iter:   9  10:05:55         -1.93   -84.108495    3      2      
iter:  10  10:05:55         -2.08   -84.103324    3      2      
iter:  11  10:05:56         -2.19   -84.099361    3      2      
iter:  12  10:05:56         -2.30   -84.096697    3      2      
iter:  13  10:05:57         -2.45   -84.095015    2      2      
iter:  14  10:05:57         -2.86   -84.099670    2      1      
iter:  15  10:05:58         -2.97   -84.099632    2      1      
iter:  16  10:05:58         -3.17   -84.093453    2      1      
iter:  17  10:05:58         -3.28   -84.093488    2      1      
iter:  18  10:05:59         -3.37   -84.094583    2      1      
iter:  19  10:05:59         -3.42   -84.094614    2      1      
iter:  20  10:06:00         -3.58   -84.094287    2      1      
iter:  21  10:06:00         -3.62   -84.094114    2      1      
iter:  22  10:06:00         -3.68   -84.094687    2      1      
iter:  23  10:06:01         -3.81   -84.095548    2      1      
iter:  24  10:06:01         -3.99   -84.094684    2      1      
iter:  25  10:06:02         -4.21   -84.094850    2      1      

Converged after 25 iterations.

Dipole moment: (0.157484, -0.334791, 0.019928) |e|*Ang

Energy contributions relative to reference atoms: (reference = -13359.165501)

Kinetic:        +34.810396
Potential:      -44.458290
External:        +0.000000
XC:             -75.865614
Entropy (-ST):   -0.031157
Local:           +1.434237
--------------------------
Free energy:    -84.110428
Extrapolated:   -84.094850

Fermi level: -6.30158

 Band  Eigenvalues  Occupancy
    0    -27.11678    2.00000
    1    -22.06342    2.00000
    2    -20.83624    2.00000
    3    -19.53301    2.00000
    4    -19.50418    2.00000
    5    -18.86075    2.00000
    6    -17.81309    2.00000
    7    -16.75498    2.00000
    8    -15.81483    2.00000
    9    -14.08521    2.00000
   10    -13.92969    2.00000
   11    -12.33353    2.00000
   12    -10.73986    2.00000
   13    -10.73039    2.00000
   14    -10.60487    2.00000
   15    -10.07666    2.00000
   16     -9.19024    2.00000
   17     -9.18585    2.00000
   18     -8.48696    2.00000
   19     -8.16033    2.00000
   20     -8.15783    2.00000
   21     -7.16506    1.99964
   22     -6.95817    1.99719
   23     -6.89756    1.99485
   24     -6.85289    1.99196
   25     -6.84588    1.99138
   26     -5.85528    0.02279
   27     -5.55143    0.00110
   28     -5.54825    0.00107
   29     -3.67828    0.00000
   30     -3.67552    0.00000
   31     -3.49829    0.00000
   32     -2.71237    0.00000
   33     -1.56997    0.00000
   34     -1.56443    0.00000
   35     -1.39029    0.00000
   36     -0.24672    0.00000
   37      0.06769    0.00000
   38      0.08657    0.00000
   39      2.16577    0.00000
   40      3.40889    0.00000
   41      3.70717    0.00000
   42      4.52676    0.00000
   43      4.83988    0.00000
   44      5.79747    0.00000
   45      6.15684    0.00000
   46      6.32030    0.00000
   47      6.78880    0.00000
   48      6.86972    0.00000
   49      7.37909    0.00000
   50      7.76268    0.00000
   51      8.04542    0.00000
   52      8.29269    0.00000
   53      8.34172    0.00000
   54      8.85006    0.00000
   55      8.95167    0.00000
   56      9.04561    0.00000
   57      9.22510    0.00000
   58      9.43697    0.00000
   59      9.50872    0.00000
   60      9.69629    0.00000
   61     10.17773    0.00000
   62     10.31218    0.00000
   63     10.47515    0.00000
   64     10.50843    0.00000
   65     10.58523    0.00000
   66     10.72330    0.00000
   67     11.28819    0.00000
   68     11.45188    0.00000
   69     11.60952    0.00000
   70     12.36945    0.00000
   71     12.43258    0.00000
   72     12.57271    0.00000
   73     12.65047    0.00000
   74     12.88071    0.00000
   75     13.12220    0.00000

Timing:                              incl.     excl.
-----------------------------------------------------------
Basic WFS set positions:             0.000     0.000   0.0% |
Basis functions set positions:       0.013     0.013   0.1% |
LCAO WFS Initialize:                 0.524     0.013   0.1% |
 Hamiltonian:                        0.511     0.000   0.0% |
  Atomic:                            0.000     0.000   0.0% |
   XC Correction:                    0.000     0.000   0.0% |
  Calculate atomic Hamiltonians:     0.000     0.000   0.0% |
  Communicate:                       0.042     0.042   0.4% |
  Hartree integrate/restrict:        0.007     0.007   0.1% |
  Initialize Hamiltonian:            0.002     0.002   0.0% |
  Poisson:                           0.296     0.296   2.6% ||
  XC 3D grid:                        0.162     0.162   1.4% ||
  vbar:                              0.002     0.002   0.0% |
SCF-cycle:                          10.571     0.011   0.1% |
 Density:                            1.736     0.001   0.0% |
  Atomic density matrices:           1.490     1.490  12.9% |----|
  Mix:                               0.226     0.226   2.0% ||
  Multipole moments:                 0.005     0.005   0.0% |
  Normalize:                         0.002     0.002   0.0% |
  Pseudo density:                    0.011     0.005   0.0% |
   Calculate density matrix:         0.006     0.006   0.1% |
   Construct density:                0.000     0.000   0.0% |
   Symmetrize density:               0.000     0.000   0.0% |
 Hamiltonian:                        7.281     0.002   0.0% |
  Atomic:                            0.005     0.005   0.0% |
   XC Correction:                    0.000     0.000   0.0% |
  Calculate atomic Hamiltonians:     0.007     0.007   0.1% |
  Communicate:                       1.018     1.018   8.8% |---|
  Hartree integrate/restrict:        0.166     0.166   1.4% ||
  Poisson:                           2.157     2.157  18.7% |------|
  XC 3D grid:                        3.882     3.882  33.6% |------------|
  vbar:                              0.044     0.044   0.4% |
 LCAO eigensolver:                   1.544     0.002   0.0% |
  Calculate projections:             0.000     0.000   0.0% |
  DenseAtomicCorrection:             0.000     0.000   0.0% |
  Distribute overlap matrix:         1.364     1.364  11.8% |----|
  Orbital Layouts:                   0.175     0.175   1.5% ||
  Potential matrix:                  0.002     0.002   0.0% |
Set symmetry:                        0.090     0.090   0.8% |
TCI: Calculate S, T, P:              0.003     0.003   0.0% |
TCI: Evaluate splines:               0.062     0.062   0.5% |
Other:                               0.295     0.295   2.6% ||
-----------------------------------------------------------
Total:                                        11.559 100.0%

Memory usage: 212.61 MiB
Date: Fri Mar 23 10:06:02 2018
