
  ___ ___ ___ _ _ _  
 |   |   |_  | | | | 
 | | | | | . | | | | 
 |__ |  _|___|_____|  1.3.1b1
 |___|_|             

User:   mkb@s91n12.grendel.cscaa.dk
Date:   Fri Mar 23 09:29:00 2018
Arch:   x86_64
Pid:    423519
Python: 2.7.13
gpaw:   /home/mkb/gpaw/gpaw
_gpaw:  /home/mkb/gpaw/build/bin.linux-x86_64-2.7/gpaw-python
ase:    /home/mkb/ase/ase (version 3.15.1b1)
numpy:  /comm/swstack/core/python/2.7.13/lib/python2.7/site-packages/numpy (version 1.13.3)
scipy:  /comm/swstack/core/python/2.7.13/lib/python2.7/site-packages/scipy (version 0.19.1)
units:  Angstrom and eV
cores:  36
Extra parameters: {'blacs': True}

Input parameters:
  basis: dzp
  gpts: [120 120  88]
  kpts: [1 1 1]
  maxiter: 99
  mixer: {backend: pulay,
          beta: 0.05,
          method: separate,
          nmaxold: 5,
          weight: 75}
  mode: lcao
  nbands: -50
  occupations: {name: fermi-dirac,
                width: 0.1}
  poissonsolver: {eps: 1e-07,
                  name: fd,
                  nn: 3,
                  relax: GS}
  xc: PBE

System changes: positions, numbers, cell, pbc, initial_charges, initial_magmoms 

Initialize ...

C-setup:
  name: Carbon
  id: 4aa54d4b901d75f77cc0ea3eec22967b
  Z: 6
  valence: 4
  core: 2
  charge: 0.0
  file: /home/esb/DFT/gpaw-setups-0.8.7929/C.PBE.gz
  cutoffs: 0.64(comp), 1.14(filt), 1.14(core), lmax=2
  valence states:
                energy  radius
    2s(2.00)   -13.751   0.635
    2p(2.00)    -5.284   0.635
    *s          13.461   0.635
    *p          21.927   0.635
    *d           0.000   0.635

  LCAO basis set for C:
    Name: dzp
    File: /home/esb/DFT/gpaw-setups-0.8.7929/C.dzp.basis.gz
    Number of radial functions: 5
    Number of spherical harmonics: 13
      l=0, rc=5.5469 Bohr: 2s-sz confined orbital
      l=1, rc=6.6719 Bohr: 2p-sz confined orbital
      l=0, rc=3.0312 Bohr: 2s-dz split-valence wave
      l=1, rc=3.7500 Bohr: 2p-dz split-valence wave
      l=2, rc=6.6719 Bohr: d-type Gaussian polarization

Reference energy: -13359.165501

Spin-paired calculation

Occupation numbers:
  Fermi-Dirac: width=0.1000 eV

Convergence criteria:
  Maximum total energy change: 0.0005 eV / electron
  Maximum integral of absolute density change: 0.0001 electrons
  Maximum integral of absolute eigenstate change: 4e-08 eV^2
  Maximum number of iterations: 99

Symmetries present (total): 1

  ( 1  0  0)
  ( 0  1  0)
  ( 0  0  1)

1 k-point (Gamma)
1 k-point in the irreducible part of the Brillouin zone
       k-points in crystal coordinates                weights
   0:     0.00000000    0.00000000    0.00000000          1/1

Wave functions: LCAO
  Diagonalizer: Serial LAPACK
  Atomic Correction: dense with blas
  Datatype: float
  Eigensolver: None 

LCAO using direct dense diagonalizer 

Densities:
  Coarse grid: 120*120*88 grid
  Fine grid: 240*240*176 grid
  Total Charge: 0.000000 

Density mixing:
  Method: separate
  Backend: pulay
  Linear mixing parameter: 0.05
  Mixing with 5 old densities
  Damping of long wave oscillations: 75 

Hamiltonian:
  XC and Coulomb potentials evaluated on a 240*240*176 grid
  Using the PBE Exchange-Correlation functional
  Interpolation: tri-quintic (5. degree polynomial)
  Poisson solver: Gauss-Seidel solver with 5 multi-grid levels
    Coarsest grid: 15 x 15 x 11 points
    Stencil: 6*3+1=19 point O(h^6) finite-difference Laplacian
    Max iterations: 1000
    Tolerance: 1.000000e-07 

Memory estimate:
  Process memory now: 96.24 MiB
  Calculator: 19.91 MiB
    Density: 9.40 MiB
      Arrays: 6.69 MiB
      Localized functions: 0.21 MiB
      Mixer: 2.50 MiB
    Hamiltonian: 9.40 MiB
      Arrays: 4.38 MiB
      XC: 0.00 MiB
      Poisson: 5.01 MiB
      vbar: 0.02 MiB
    Wavefunctions: 1.11 MiB
      C [qnM]: 0.10 MiB
      S, T [2 x qmm]: 0.44 MiB
      P [aqMi]: 0.00 MiB
      TCI: 0.00 MiB
      BasisFunctions: 0.57 MiB
      Eigensolver: 0.00 MiB

Total number of cores used: 36
Domain decomposition: 3 x 4 x 3

Number of atoms: 13
Number of atomic orbitals: 169
Number of bands in calculation: 76
Bands to converge: occupied states only
Number of valence electrons: 52

... initialized

Initializing position-dependent things.

Density initialized from atomic densities
                .----------------------------------------------------------.  
               /|                                                          |  
              / |                                                          |  
             /  |                                                          |  
            /   |                                                          |  
           /    |                                                          |  
          /     |                                                          |  
         /      |                                                          |  
        /       |                                                          |  
       /        |                                                          |  
      /         |                                                          |  
     /          |                                                          |  
    /           |                                                          |  
   /            |                                                          |  
  /             |                                                          |  
 *              |                                                          |  
 |              |                       C                                  |  
 |              |                         C    C                           |  
 |              |         C  CC                                            |  
 |              |               C          C                               |  
 |              |                            C                             |  
 |              |             C  C        C                                |  
 |              .-------------------C--------------------------------------.  
 |             /                                                          /   
 |            /                                                          /    
 |           /                                                          /     
 |          /                                                          /      
 |         /                                                          /       
 |        /                                                          /        
 |       /                                                          /         
 |      /                                                          /          
 |     /                                                          /           
 |    /                                                          /            
 |   /                                                          /             
 |  /                                                          /              
 | /                                                          /               
 |/                                                          /                
 *----------------------------------------------------------*                 

Positions:
   0 C     14.271876   10.380716    9.713066
   1 C     13.066437   14.246824    9.336909
   2 C      7.938478   12.924418    9.160943
   3 C     12.388025    7.639521    8.410466
   4 C     15.279474   13.854685    8.942192
   5 C     14.996157   11.785988    8.282704
   6 C      7.518097   10.986915    9.601535
   7 C      8.854644   12.274076    9.110062
   8 C     14.457611    8.520879    8.705332
   9 C      9.920468   10.658570    8.972889
  10 C     12.083316   14.529540    9.678972
  11 C      9.909499    7.531256    9.533311
  12 C     11.233706    7.711291    9.179820

Unit cell:
           periodic     x           y           z      points  spacing
  1. axis:    no    24.000000    0.000000    0.000000   120     0.2000
  2. axis:    no     0.000000   24.000000    0.000000   120     0.2000
  3. axis:    no     0.000000    0.000000   18.000000    88     0.2045

  Lengths:  24.000000  24.000000  18.000000
  Angles:   90.000000  90.000000  90.000000

Effective grid spacing dv^(1/3) = 0.2015

                     log10-error:    total        iterations:
           time      wfs    density  energy       fermi  poisson
iter:   1  09:29:01          +inf   -65.680064    2      6      
iter:   2  09:29:01         -0.76   -61.594718    29     3      
iter:   3  09:29:02         -0.83   -56.826853    34     3      
iter:   4  09:29:02         -0.93   -57.877938    4      3      
iter:   5  09:29:03         -0.83   -56.226894    3      3      
iter:   6  09:29:03         -0.92   -56.192746    3      2      
iter:   7  09:29:04         -0.92   -55.364085    3      3      
iter:   8  09:29:04         -1.00   -54.948216    3      3      
iter:   9  09:29:05         -1.12   -54.909783    3      3      
iter:  10  09:29:05         -1.17   -54.969795    3      3      
iter:  11  09:29:06         -1.21   -54.637968    3      3      
iter:  12  09:29:06         -1.34   -54.496510    3      3      
iter:  13  09:29:07         -1.58   -54.470588    3      2      
iter:  14  09:29:07         -1.68   -54.463009    3      2      
iter:  15  09:29:08         -1.71   -54.434479    2      3      
iter:  16  09:29:08         -1.98   -54.430682    3      2      
iter:  17  09:29:09         -2.21   -54.427037    2      2      
iter:  18  09:29:09         -2.33   -54.426028    2      2      
iter:  19  09:29:10         -2.42   -54.430068    1      1      
iter:  20  09:29:10         -2.49   -54.421373    2      2      
iter:  21  09:29:11         -2.76   -54.422395    1      1      
iter:  22  09:29:11         -2.90   -54.421519    2      2      
iter:  23  09:29:11         -3.15   -54.420477    2      1      
iter:  24  09:29:12         -3.22   -54.421092    2      1      
iter:  25  09:29:12         -3.32   -54.420088    2      1      
iter:  26  09:29:13         -3.52   -54.420053    2      1      
iter:  27  09:29:13         -3.62   -54.421243    2      1      
iter:  28  09:29:14         -3.67   -54.421316    2      1      
iter:  29  09:29:14         -3.73   -54.421755    2      1      
iter:  30  09:29:14         -4.01   -54.421685    2      1      

Converged after 30 iterations.

Dipole moment: (0.494781, -0.863842, -0.164462) |e|*Ang

Energy contributions relative to reference atoms: (reference = -13359.165501)

Kinetic:        +27.485115
Potential:      -35.113664
External:        +0.000000
XC:             -47.806069
Entropy (-ST):   -0.529607
Local:           +1.277736
--------------------------
Free energy:    -54.686488
Extrapolated:   -54.421685

Fermi level: -6.30119

 Band  Eigenvalues  Occupancy
    0    -21.59688    2.00000
    1    -20.30853    2.00000
    2    -18.86831    2.00000
    3    -17.33896    2.00000
    4    -16.23243    2.00000
    5    -15.93423    2.00000
    6    -15.31197    2.00000
    7    -14.48716    2.00000
    8    -13.88640    2.00000
    9    -12.36043    2.00000
   10     -9.91974    2.00000
   11     -9.53303    2.00000
   12     -9.32576    2.00000
   13     -9.19828    2.00000
   14     -8.99294    2.00000
   15     -8.81293    2.00000
   16     -8.51075    2.00000
   17     -7.96281    2.00000
   18     -7.63619    2.00000
   19     -7.41250    1.99997
   20     -7.31252    1.99992
   21     -7.11891    1.99944
   22     -6.98285    1.99781
   23     -6.56262    1.86356
   24     -6.49748    1.75371
   25     -6.31154    1.05172
   26     -6.28926    0.94043
   27     -6.12408    0.29083
   28     -6.00339    0.09686
   29     -5.64847    0.00292
   30     -5.62462    0.00230
   31     -5.46951    0.00049
   32     -5.17185    0.00002
   33     -4.54359    0.00000
   34     -4.28121    0.00000
   35     -3.66335    0.00000
   36     -3.23248    0.00000
   37     -3.17093    0.00000
   38     -2.94150    0.00000
   39     -1.83194    0.00000
   40     -1.59882    0.00000
   41     -1.47761    0.00000
   42     -0.57786    0.00000
   43     -0.08257    0.00000
   44      0.89173    0.00000
   45      1.65865    0.00000
   46      2.47631    0.00000
   47      2.53425    0.00000
   48      5.45595    0.00000
   49      6.80843    0.00000
   50      7.44394    0.00000
   51      7.90650    0.00000
   52      8.06202    0.00000
   53      8.22743    0.00000
   54      8.34549    0.00000
   55      8.72182    0.00000
   56      8.78317    0.00000
   57      8.92621    0.00000
   58      9.23964    0.00000
   59      9.34656    0.00000
   60      9.42364    0.00000
   61      9.63276    0.00000
   62      9.83718    0.00000
   63     10.05663    0.00000
   64     10.22382    0.00000
   65     10.27629    0.00000
   66     10.44649    0.00000
   67     10.56502    0.00000
   68     10.73486    0.00000
   69     10.85518    0.00000
   70     11.18357    0.00000
   71     11.32467    0.00000
   72     11.52409    0.00000
   73     11.56055    0.00000
   74     11.70508    0.00000
   75     12.00543    0.00000


Forces in eV/Ang:
  0 C     1.53106   -0.89709   -4.74811
  1 C    27.32545   -7.63190   -8.95956
  2 C   -18.64735   10.65685    1.56103
  3 C    -1.27928    1.19005    2.30631
  4 C    -3.81326   -2.62819   -0.33611
  5 C    -1.11350    0.58308    3.74363
  6 C     3.48540    3.44453   -1.46836
  7 C    19.13231  -18.03622   -0.81275
  8 C    -1.90905    2.74588    1.68611
  9 C    -3.85610    3.86304    0.73079
 10 C   -23.82541    6.79361    8.24830
 11 C     2.17752    0.41043   -0.58816
 12 C     0.90771   -0.53516   -1.39695

System changes: positions 

Initializing position-dependent things.

Density initialized from wave functions
                .----------------------------------------------------------.  
               /|                                                          |  
              / |                                                          |  
             /  |                                                          |  
            /   |                                                          |  
           /    |                                                          |  
          /     |                                                          |  
         /      |                                                          |  
        /       |                                                          |  
       /        |                                                          |  
      /         |                                                          |  
     /          |                                                          |  
    /           |                                                          |  
   /            |                                                          |  
  /             |                                                          |  
 *              |                                                          |  
 |              |                       C                                  |  
 |              |                         C    C                           |  
 |              |         C  CC                                            |  
 |              |               C          C                               |  
 |              |                            C                             |  
 |              |             C  C        C                                |  
 |              .-------------------C--------------------------------------.  
 |             /                                                          /   
 |            /                                                          /    
 |           /                                                          /     
 |          /                                                          /      
 |         /                                                          /       
 |        /                                                          /        
 |       /                                                          /         
 |      /                                                          /          
 |     /                                                          /           
 |    /                                                          /            
 |   /                                                          /             
 |  /                                                          /              
 | /                                                          /               
 |/                                                          /                
 *----------------------------------------------------------*                 

Positions:
   0 C     14.273934   10.379510    9.706682
   1 C     13.103174   14.236564    9.324863
   2 C      7.913408   12.938745    9.163042
   3 C     12.386305    7.641121    8.413567
   4 C     15.274347   13.851152    8.941740
   5 C     14.994660   11.786772    8.287737
   6 C      7.522783   10.991546    9.599561
   7 C      8.880366   12.249828    9.108969
   8 C     14.455044    8.524570    8.707599
   9 C      9.915284   10.663764    8.973871
  10 C     12.051284   14.538673    9.690061
  11 C      9.912427    7.531808    9.532520
  12 C     11.234926    7.710572    9.177942

Unit cell:
           periodic     x           y           z      points  spacing
  1. axis:    no    24.000000    0.000000    0.000000   120     0.2000
  2. axis:    no     0.000000   24.000000    0.000000   120     0.2000
  3. axis:    no     0.000000    0.000000   18.000000    88     0.2045

  Lengths:  24.000000  24.000000  18.000000
  Angles:   90.000000  90.000000  90.000000

Effective grid spacing dv^(1/3) = 0.2015

                     log10-error:    total        iterations:
           time      wfs    density  energy       fermi  poisson
iter:   1  09:29:15          +inf   -58.218889    4      5      
iter:   2  09:29:16         -1.34   -57.711489    3      2      
iter:   3  09:29:16         -1.58   -57.638098    3      2      
iter:   4  09:29:17         -1.50   -57.621083    3      2      
iter:   5  09:29:17         -1.70   -57.568247    2      2      
iter:   6  09:29:18         -1.85   -57.526838    3      2      
iter:   7  09:29:18         -1.99   -57.519025    3      2      
iter:   8  09:29:19         -2.20   -57.522494    3      2      
iter:   9  09:29:19         -2.44   -57.517964    2      1      
iter:  10  09:29:20         -2.62   -57.514263    2      2      
iter:  11  09:29:20         -2.77   -57.516050    2      1      
iter:  12  09:29:20         -2.91   -57.513926    2      2      
iter:  13  09:29:21         -3.11   -57.514070    2      1      
iter:  14  09:29:21         -3.29   -57.515024    2      1      
iter:  15  09:29:22         -3.44   -57.514247    2      1      
iter:  16  09:29:22         -3.56   -57.513263    2      1      
iter:  17  09:29:22         -3.69   -57.512830    2      1      
iter:  18  09:29:23         -3.83   -57.513816    2      1      
iter:  19  09:29:23         -3.91   -57.513850    2      1      
iter:  20  09:29:24         -4.04   -57.513698    2      1      

Converged after 20 iterations.

Dipole moment: (0.529385, -0.859579, -0.180762) |e|*Ang

Energy contributions relative to reference atoms: (reference = -13359.165501)

Kinetic:         +9.183015
Potential:      -22.928254
External:        +0.000000
XC:             -44.749499
Entropy (-ST):   -0.482626
Local:           +1.222353
--------------------------
Free energy:    -57.755011
Extrapolated:   -57.513698

Fermi level: -6.31500

 Band  Eigenvalues  Occupancy
    0    -21.34697    2.00000
    1    -20.35532    2.00000
    2    -18.68295    2.00000
    3    -17.37956    2.00000
    4    -16.28260    2.00000
    5    -15.96290    2.00000
    6    -15.35606    2.00000
    7    -14.40804    2.00000
    8    -13.91809    2.00000
    9    -12.36885    2.00000
   10    -10.01147    2.00000
   11     -9.54084    2.00000
   12     -9.16479    2.00000
   13     -9.02449    2.00000
   14     -8.97456    2.00000
   15     -8.85407    2.00000
   16     -8.77431    2.00000
   17     -7.98196    2.00000
   18     -7.67472    2.00000
   19     -7.45735    1.99998
   20     -7.29799    1.99989
   21     -6.96171    1.99690
   22     -6.87307    1.99249
   23     -6.59590    1.88632
   24     -6.55463    1.83309
   25     -6.34069    1.12774
   26     -6.28916    0.87148
   27     -6.11230    0.23279
   28     -5.96050    0.05611
   29     -5.63448    0.00221
   30     -5.50716    0.00062
   31     -5.45297    0.00036
   32     -5.18524    0.00002
   33     -4.54755    0.00000
   34     -4.21332    0.00000
   35     -3.67251    0.00000
   36     -3.12978    0.00000
   37     -2.95990    0.00000
   38     -2.93556    0.00000
   39     -1.79204    0.00000
   40     -1.56310    0.00000
   41     -1.30063    0.00000
   42     -0.55032    0.00000
   43     -0.06666    0.00000
   44      0.29075    0.00000
   45      1.22859    0.00000
   46      1.69858    0.00000
   47      1.78519    0.00000
   48      5.50153    0.00000
   49      6.80335    0.00000
   50      7.46913    0.00000
   51      7.92630    0.00000
   52      8.05017    0.00000
   53      8.22605    0.00000
   54      8.35859    0.00000
   55      8.72791    0.00000
   56      8.79729    0.00000
   57      8.92546    0.00000
   58      9.17395    0.00000
   59      9.33654    0.00000
   60      9.39841    0.00000
   61      9.63261    0.00000
   62      9.84915    0.00000
   63     10.06311    0.00000
   64     10.23775    0.00000
   65     10.26579    0.00000
   66     10.43757    0.00000
   67     10.53267    0.00000
   68     10.74400    0.00000
   69     10.80345    0.00000
   70     11.15525    0.00000
   71     11.34016    0.00000
   72     11.46773    0.00000
   73     11.53763    0.00000
   74     11.67367    0.00000
   75     11.97024    0.00000


Forces in eV/Ang:
  0 C     1.54894   -0.91765   -4.79942
  1 C    16.24256   -4.47189   -5.12574
  2 C   -11.26588    5.61108    1.12841
  3 C    -1.14179    1.17925    2.18793
  4 C    -4.00937   -2.49751   -0.26879
  5 C    -1.16128    0.48112    3.74907
  6 C     3.60825    3.42159   -1.48589
  7 C    11.75055  -13.14476   -0.37419
  8 C    -1.89781    2.80759    1.71090
  9 C    -4.00170    4.10577    0.75914
 10 C   -12.52786    3.54620    4.34480
 11 C     2.10212    0.38405   -0.57825
 12 C     0.82501   -0.52332   -1.30315

System changes: positions 

Initializing position-dependent things.

Density initialized from wave functions
                .----------------------------------------------------------.  
               /|                                                          |  
              / |                                                          |  
             /  |                                                          |  
            /   |                                                          |  
           /    |                                                          |  
          /     |                                                          |  
         /      |                                                          |  
        /       |                                                          |  
       /        |                                                          |  
      /         |                                                          |  
     /          |                                                          |  
    /           |                                                          |  
   /            |                                                          |  
  /             |                                                          |  
 *              |                                                          |  
 |              |                       C                                  |  
 |              |                         C    C                           |  
 |              |         C  C C                                           |  
 |              |               C          C C                             |  
 |              |                                                          |  
 |              |             C  C        C                                |  
 |              .-------------------C--------------------------------------.  
 |             /                                                          /   
 |            /                                                          /    
 |           /                                                          /     
 |          /                                                          /      
 |         /                                                          /       
 |        /                                                          /        
 |       /                                                          /         
 |      /                                                          /          
 |     /                                                          /           
 |    /                                                          /            
 |   /                                                          /             
 |  /                                                          /              
 | /                                                          /               
 |/                                                          /                
 *----------------------------------------------------------*                 

Positions:
   0 C     14.281311   10.375088    9.683846
   1 C     13.121773   14.232010    9.320747
   2 C      7.898914   12.938825    9.166093
   3 C     12.381653    7.646610    8.423238
   4 C     15.254471   13.840089    8.940827
   5 C     14.988950   11.788503    8.305395
   6 C      7.540391   11.007516    9.592482
   7 C      8.897137   12.213517    9.109496
   8 C     14.446179    8.538094    8.715774
   9 C      9.895707   10.684336    8.977589
  10 C     12.051273   14.538419    9.690142
  11 C      9.921918    7.533476    9.529853
  12 C     11.238375    7.708173    9.172303

Unit cell:
           periodic     x           y           z      points  spacing
  1. axis:    no    24.000000    0.000000    0.000000   120     0.2000
  2. axis:    no     0.000000   24.000000    0.000000   120     0.2000
  3. axis:    no     0.000000    0.000000   18.000000    88     0.2045

  Lengths:  24.000000  24.000000  18.000000
  Angles:   90.000000  90.000000  90.000000

Effective grid spacing dv^(1/3) = 0.2015

                     log10-error:    total        iterations:
           time      wfs    density  energy       fermi  poisson
iter:   1  09:29:25          +inf   -59.577243    3      5      
iter:   2  09:29:25         -1.49   -59.368755    3      2      
iter:   3  09:29:26         -1.95   -59.352662    2      2      
iter:   4  09:29:26         -2.06   -59.341237    2      2      
iter:   5  09:29:27         -2.20   -59.331447    2      2      
iter:   6  09:29:27         -2.23   -59.338330    3      2      
iter:   7  09:29:27         -2.23   -59.330813    2      2      
iter:   8  09:29:28         -2.57   -59.328894    2      2      
iter:   9  09:29:28         -2.75   -59.327916    2      1      
iter:  10  09:29:29         -2.95   -59.327572    2      1      
iter:  11  09:29:29         -3.11   -59.327753    2      1      
iter:  12  09:29:30         -3.20   -59.328229    2      1      
iter:  13  09:29:30         -3.30   -59.328156    2      1      
iter:  14  09:29:30         -3.41   -59.328516    2      1      
iter:  15  09:29:31         -3.48   -59.328457    2      1      
iter:  16  09:29:31         -3.57   -59.328288    2      1      
iter:  17  09:29:32         -3.65   -59.329211    2      1      
iter:  18  09:29:32         -3.67   -59.328918    2      1      
iter:  19  09:29:33         -3.89   -59.328864    2      1      
iter:  20  09:29:33         -4.02   -59.329127    1      1      

Converged after 20 iterations.

Dipole moment: (0.544165, -0.829328, -0.189295) |e|*Ang

Energy contributions relative to reference atoms: (reference = -13359.165501)

Kinetic:         +3.762817
Potential:      -19.532431
External:        +0.000000
XC:             -44.571041
Entropy (-ST):   -0.437186
Local:           +1.230120
--------------------------
Free energy:    -59.547720
Extrapolated:   -59.329127

Fermi level: -6.32771

 Band  Eigenvalues  Occupancy
    0    -21.30699    2.00000
    1    -20.46767    2.00000
    2    -18.66780    2.00000
    3    -17.47263    2.00000
    4    -16.39454    2.00000
    5    -16.12434    2.00000
    6    -15.43544    2.00000
    7    -14.32025    2.00000
    8    -13.94482    2.00000
    9    -12.31123    2.00000
   10    -10.05208    2.00000
   11     -9.52998    2.00000
   12     -9.17854    2.00000
   13     -9.09222    2.00000
   14     -8.93548    2.00000
   15     -8.90547    2.00000
   16     -8.78987    2.00000
   17     -8.00871    2.00000
   18     -7.73920    2.00000
   19     -7.54563    1.99999
   20     -7.33727    1.99992
   21     -6.97454    1.99690
   22     -6.88845    1.99269
   23     -6.63334    1.91011
   24     -6.59958    1.87624
   25     -6.36896    1.20337
   26     -6.28879    0.80781
   27     -6.09876    0.18400
   28     -5.89800    0.02685
   29     -5.62565    0.00179
   30     -5.42724    0.00025
   31     -5.31245    0.00008
   32     -5.18922    0.00002
   33     -4.51361    0.00000
   34     -4.05377    0.00000
   35     -3.65346    0.00000
   36     -2.98622    0.00000
   37     -2.88641    0.00000
   38     -2.54285    0.00000
   39     -1.59331    0.00000
   40     -1.36064    0.00000
   41     -0.96890    0.00000
   42     -0.43031    0.00000
   43     -0.10130    0.00000
   44      0.02626    0.00000
   45      1.18001    0.00000
   46      1.47968    0.00000
   47      1.58347    0.00000
   48      5.66640    0.00000
   49      6.80590    0.00000
   50      7.47271    0.00000
   51      7.96383    0.00000
   52      8.04991    0.00000
   53      8.23211    0.00000
   54      8.39384    0.00000
   55      8.73910    0.00000
   56      8.80759    0.00000
   57      8.94144    0.00000
   58      9.11037    0.00000
   59      9.33727    0.00000
   60      9.37497    0.00000
   61      9.64528    0.00000
   62      9.86681    0.00000
   63     10.07621    0.00000
   64     10.22663    0.00000
   65     10.28515    0.00000
   66     10.45246    0.00000
   67     10.53702    0.00000
   68     10.73740    0.00000
   69     10.79974    0.00000
   70     11.13048    0.00000
   71     11.33681    0.00000
   72     11.45644    0.00000
   73     11.54462    0.00000
   74     11.63422    0.00000
   75     11.95067    0.00000


Forces in eV/Ang:
  0 C     1.59677   -0.89708   -4.90976
  1 C    14.19256   -3.88335   -4.37598
  2 C    -7.30190    2.96167    0.89805
  3 C    -0.68489    1.12253    1.84017
  4 C    -4.19310   -2.42175   -0.20012
  5 C    -1.23889    0.28910    3.80757
  6 C     3.66313    3.37220   -1.48241
  7 C     7.92346  -10.68400   -0.19034
  8 C    -1.82864    2.98202    1.74961
  9 C    -4.20746    4.35911    0.77980
 10 C   -10.32173    2.90520    3.56887
 11 C     1.84063    0.32619   -0.52153
 12 C     0.57187   -0.45231   -1.01532

System changes: positions 

Initializing position-dependent things.

Density initialized from wave functions
                .----------------------------------------------------------.  
               /|                                                          |  
              / |                                                          |  
             /  |                                                          |  
            /   |                                                          |  
           /    |                                                          |  
          /     |                                                          |  
         /      |                                                          |  
        /       |                                                          |  
       /        |                                                          |  
      /         |                                                          |  
     /          |                                                          |  
    /           |                                                          |  
   /            |                                                          |  
  /             |                                                          |  
 *              |                                                          |  
 |              |                       C                                  |  
 |              |                         C    C                           |  
 |              |         C C C                                            |  
 |              |               C          C C                             |  
 |              |                                                          |  
 |              |             C  C        C                                |  
 |              .-------------------C--------------------------------------.  
 |             /                                                          /   
 |            /                                                          /    
 |           /                                                          /     
 |          /                                                          /      
 |         /                                                          /       
 |        /                                                          /        
 |       /                                                          /         
 |      /                                                          /          
 |     /                                                          /           
 |    /                                                          /            
 |   /                                                          /             
 |  /                                                          /              
 | /                                                          /               
 |/                                                          /                
 *----------------------------------------------------------*                 

Positions:
   0 C     14.291406   10.369506    9.652929
   1 C     13.152263   14.224338    9.313617
   2 C      7.899460   12.926077    9.168973
   3 C     12.379382    7.653336    8.433058
   4 C     15.227102   13.825940    8.940101
   5 C     14.980843   11.789260    8.329134
   6 C      7.563770   11.028117    9.583245
   7 C      8.900832   12.177253    9.110884
   8 C     14.435125    8.557326    8.726819
   9 C      9.868419   10.713150    8.982602
  10 C     12.046165   14.539485    9.691882
  11 C      9.932190    7.535203    9.526839
  12 C     11.240792    7.705637    9.167296

Unit cell:
           periodic     x           y           z      points  spacing
  1. axis:    no    24.000000    0.000000    0.000000   120     0.2000
  2. axis:    no     0.000000   24.000000    0.000000   120     0.2000
  3. axis:    no     0.000000    0.000000   18.000000    88     0.2045

  Lengths:  24.000000  24.000000  18.000000
  Angles:   90.000000  90.000000  90.000000

Effective grid spacing dv^(1/3) = 0.2015

                     log10-error:    total        iterations:
           time      wfs    density  energy       fermi  poisson
iter:   1  09:29:34          +inf   -61.507777    3      5      
iter:   2  09:29:34         -1.51   -61.268488    3      2      
iter:   3  09:29:35         -1.79   -61.226529    3      2      
iter:   4  09:29:35         -1.82   -61.259081    3      2      
iter:   5  09:29:36         -1.82   -61.218746    3      2      
iter:   6  09:29:36         -2.10   -61.206775    2      2      
iter:   7  09:29:37         -2.32   -61.203663    2      2      
iter:   8  09:29:37         -2.47   -61.202552    2      2      
iter:   9  09:29:38         -2.55   -61.199838    2      2      
iter:  10  09:29:38         -2.71   -61.198797    2      1      
iter:  11  09:29:38         -2.83   -61.197021    2      1      
iter:  12  09:29:39         -2.95   -61.197767    2      1      
iter:  13  09:29:39         -3.13   -61.199056    2      1      
iter:  14  09:29:40         -3.25   -61.199808    2      1      
iter:  15  09:29:40         -3.35   -61.199159    2      1      
iter:  16  09:29:41         -3.60   -61.200064    2      1      
iter:  17  09:29:41         -3.76   -61.200763    2      1      
iter:  18  09:29:41         -3.83   -61.200531    2      1      
iter:  19  09:29:42         -3.97   -61.200629    2      1      
iter:  20  09:29:42         -4.15   -61.200896    2      1      

Converged after 20 iterations.

Dipole moment: (0.554974, -0.785603, -0.197900) |e|*Ang

Energy contributions relative to reference atoms: (reference = -13359.165501)

Kinetic:         +0.609440
Potential:      -17.800952
External:        +0.000000
XC:             -45.032678
Entropy (-ST):   -0.391072
Local:           +1.218830
--------------------------
Free energy:    -61.396431
Extrapolated:   -61.200896

Fermi level: -6.34358

 Band  Eigenvalues  Occupancy
    0    -21.52489    2.00000
    1    -20.56721    2.00000
    2    -18.61504    2.00000
    3    -17.55954    2.00000
    4    -16.54871    2.00000
    5    -16.39287    2.00000
    6    -15.54398    2.00000
    7    -14.28126    2.00000
    8    -13.99416    2.00000
    9    -12.23669    2.00000
   10    -10.01472    2.00000
   11     -9.52782    2.00000
   12     -9.33657    2.00000
   13     -9.15771    2.00000
   14     -9.09357    2.00000
   15     -8.99910    2.00000
   16     -8.70578    2.00000
   17     -8.02810    2.00000
   18     -7.82337    2.00000
   19     -7.63797    2.00000
   20     -7.38774    1.99994
   21     -6.98777    1.99682
   22     -6.91155    1.99319
   23     -6.67368    1.92893
   24     -6.64221    1.90390
   25     -6.41210    1.32978
   26     -6.28195    0.70125
   27     -6.07822    0.13154
   28     -5.84194    0.01317
   29     -5.61190    0.00133
   30     -5.38323    0.00013
   31     -5.18607    0.00002
   32     -5.13484    0.00001
   33     -4.46816    0.00000
   34     -3.86460    0.00000
   35     -3.59770    0.00000
   36     -2.81872    0.00000
   37     -2.74914    0.00000
   38     -2.06101    0.00000
   39     -1.31955    0.00000
   40     -1.05520    0.00000
   41     -0.65797    0.00000
   42     -0.30271    0.00000
   43     -0.16683    0.00000
   44      0.13385    0.00000
   45      1.06384    0.00000
   46      1.12400    0.00000
   47      1.65753    0.00000
   48      5.82000    0.00000
   49      6.81984    0.00000
   50      7.45343    0.00000
   51      7.98989    0.00000
   52      8.06384    0.00000
   53      8.23252    0.00000
   54      8.43388    0.00000
   55      8.74806    0.00000
   56      8.80544    0.00000
   57      8.95062    0.00000
   58      9.08918    0.00000
   59      9.32630    0.00000
   60      9.35947    0.00000
   61      9.65980    0.00000
   62      9.87757    0.00000
   63     10.09062    0.00000
   64     10.18967    0.00000
   65     10.30477    0.00000
   66     10.46580    0.00000
   67     10.54674    0.00000
   68     10.72927    0.00000
   69     10.79804    0.00000
   70     11.11186    0.00000
   71     11.33792    0.00000
   72     11.44913    0.00000
   73     11.55383    0.00000
   74     11.59313    0.00000
   75     11.94125    0.00000


Forces in eV/Ang:
  0 C     1.66661   -0.88436   -5.10597
  1 C    10.91514   -2.93297   -3.18951
  2 C    -6.19837    2.30023    0.83168
  3 C    -0.28795    1.05551    1.49998
  4 C    -4.46267   -2.28260   -0.04190
  5 C    -1.34482   -0.03872    3.88114
  6 C     3.59288    3.27169   -1.46516
  7 C     6.99968  -10.02266   -0.18518
  8 C    -1.75119    3.24820    1.80974
  9 C    -4.31412    4.45024    0.81175
 10 C    -6.70999    1.86695    2.32052
 11 C     1.52738    0.26936   -0.44080
 12 C     0.45297   -0.35134   -0.76098

System changes: positions 

Initializing position-dependent things.

Density initialized from wave functions
                .----------------------------------------------------------.  
               /|                                                          |  
              / |                                                          |  
             /  |                                                          |  
            /   |                                                          |  
           /    |                                                          |  
          /     |                                                          |  
         /      |                                                          |  
        /       |                                                          |  
       /        |                                                          |  
      /         |                                                          |  
     /          |                                                          |  
    /           |                                                          |  
   /            |                                                          |  
  /             |                                                          |  
 *              |                                                          |  
 |              |                       C                                  |  
 |              |                         C    C                           |  
 |              |          CC C                                            |  
 |              |               C          C C                             |  
 |              |                                                          |  
 |              |             C  C        C                                |  
 |              .-------------------C--------------------------------------.  
 |             /                                                          /   
 |            /                                                          /    
 |           /                                                          /     
 |          /                                                          /      
 |         /                                                          /       
 |        /                                                          /        
 |       /                                                          /         
 |      /                                                          /          
 |     /                                                          /           
 |    /                                                          /            
 |   /                                                          /             
 |  /                                                          /              
 | /                                                          /               
 |/                                                          /                
 *----------------------------------------------------------*                 

Positions:
   0 C     14.301838   10.364136    9.621104
   1 C     13.174246   14.219195    9.309771
   2 C      7.896934   12.916320    9.171975
   3 C     12.379898    7.659472    8.440362
   4 C     15.198438   13.812863    8.940474
   5 C     14.972142   11.787699    8.353040
   6 C      7.586060   11.047673    9.574309
   7 C      8.908876   12.139019    9.111616
   8 C     14.424807    8.578157    8.738104
   9 C      9.840992   10.741811    8.987733
  10 C     12.051354   14.537598    9.690064
  11 C      9.940071    7.536518    9.524462
  12 C     11.242421    7.703880    9.164122

Unit cell:
           periodic     x           y           z      points  spacing
  1. axis:    no    24.000000    0.000000    0.000000   120     0.2000
  2. axis:    no     0.000000   24.000000    0.000000   120     0.2000
  3. axis:    no     0.000000    0.000000   18.000000    88     0.2045

  Lengths:  24.000000  24.000000  18.000000
  Angles:   90.000000  90.000000  90.000000

Effective grid spacing dv^(1/3) = 0.2015

                     log10-error:    total        iterations:
           time      wfs    density  energy       fermi  poisson
iter:   1  09:29:43          +inf   -63.027877    3      5      
iter:   2  09:29:44         -1.56   -62.889035    3      2      
iter:   3  09:29:44         -1.91   -62.871042    2      2      
iter:   4  09:29:45         -2.03   -62.867190    2      2      
iter:   5  09:29:45         -2.11   -62.854838    3      2      
iter:   6  09:29:46         -2.19   -62.855060    2      2      
iter:   7  09:29:46         -2.39   -62.851288    2      2      
iter:   8  09:29:47         -2.63   -62.851489    2      2      
iter:   9  09:29:47         -2.77   -62.851074    2      2      
iter:  10  09:29:47         -2.93   -62.845583    2      1      
iter:  11  09:29:48         -3.14   -62.848398    2      1      
iter:  12  09:29:48         -3.24   -62.850124    2      1      
iter:  13  09:29:49         -3.40   -62.849026    2      1      
iter:  14  09:29:49         -3.58   -62.850036    2      1      
iter:  15  09:29:50         -3.82   -62.850971    2      1      
iter:  16  09:29:50         -4.01   -62.850955    2      1      

Converged after 16 iterations.

Dipole moment: (0.572519, -0.736278, -0.203035) |e|*Ang

Energy contributions relative to reference atoms: (reference = -13359.165501)

Kinetic:         -0.970709
Potential:      -17.067255
External:        +0.000000
XC:             -45.855538
Entropy (-ST):   -0.348003
Local:           +1.216548
--------------------------
Free energy:    -63.024956
Extrapolated:   -62.850955

Fermi level: -6.36978

 Band  Eigenvalues  Occupancy
    0    -21.70743    2.00000
    1    -20.63533    2.00000
    2    -18.63369    2.00000
    3    -17.62559    2.00000
    4    -16.71935    2.00000
    5    -16.68930    2.00000
    6    -15.66253    2.00000
    7    -14.21708    2.00000
    8    -14.06545    2.00000
    9    -12.16655    2.00000
   10     -9.93564    2.00000
   11     -9.55232    2.00000
   12     -9.47194    2.00000
   13     -9.20971    2.00000
   14     -9.20095    2.00000
   15     -9.04095    2.00000
   16     -8.57218    2.00000
   17     -8.05364    2.00000
   18     -7.90532    2.00000
   19     -7.72077    2.00000
   20     -7.44712    1.99996
   21     -7.04356    1.99763
   22     -6.96393    1.99476
   23     -6.73942    1.95157
   24     -6.68180    1.91544
   25     -6.46146    1.42878
   26     -6.28833    0.61388
   27     -6.06659    0.09201
   28     -5.76996    0.00495
   29     -5.60190    0.00092
   30     -5.35326    0.00008
   31     -5.17449    0.00001
   32     -4.93480    0.00000
   33     -4.43182    0.00000
   34     -3.67034    0.00000
   35     -3.51218    0.00000
   36     -2.76179    0.00000
   37     -2.52394    0.00000
   38     -1.52817    0.00000
   39     -1.04628    0.00000
   40     -0.70736    0.00000
   41     -0.56416    0.00000
   42     -0.21930    0.00000
   43     -0.15139    0.00000
   44      0.21560    0.00000
   45      0.87245    0.00000
   46      0.96188    0.00000
   47      2.25510    0.00000
   48      5.91306    0.00000
   49      6.84354    0.00000
   50      7.45966    0.00000
   51      7.99489    0.00000
   52      8.09146    0.00000
   53      8.23407    0.00000
   54      8.47497    0.00000
   55      8.75717    0.00000
   56      8.79137    0.00000
   57      8.95133    0.00000
   58      9.08588    0.00000
   59      9.31081    0.00000
   60      9.35589    0.00000
   61      9.67549    0.00000
   62      9.88809    0.00000
   63     10.10286    0.00000
   64     10.16824    0.00000
   65     10.32858    0.00000
   66     10.47445    0.00000
   67     10.56758    0.00000
   68     10.71340    0.00000
   69     10.80489    0.00000
   70     11.08854    0.00000
   71     11.33083    0.00000
   72     11.45206    0.00000
   73     11.54179    0.00000
   74     11.56604    0.00000
   75     11.91109    0.00000


Forces in eV/Ang:
  0 C     1.70714   -0.84959   -5.30001
  1 C     9.82482   -2.62374   -2.79266
  2 C    -4.68654    1.26115    0.73658
  3 C    -0.10861    1.00294    1.28819
  4 C    -4.72492   -2.15399    0.05071
  5 C    -1.45777   -0.38840    3.96118
  6 C     3.50051    3.13816   -1.42466
  7 C     5.60284   -8.80951   -0.13957
  8 C    -1.64066    3.52736    1.88794
  9 C    -4.32438    4.39910    0.82633
 10 C    -5.35833    1.47282    1.84342
 11 C     1.27878    0.22005   -0.37797
 12 C     0.46290   -0.26724   -0.61804

System changes: positions 

Initializing position-dependent things.

Density initialized from wave functions
                .----------------------------------------------------------.  
               /|                                                          |  
              / |                                                          |  
             /  |                                                          |  
            /   |                                                          |  
           /    |                                                          |  
          /     |                                                          |  
         /      |                                                          |  
        /       |                                                          |  
       /        |                                                          |  
      /         |                                                          |  
     /          |                                                          |  
    /           |                                                          |  
   /            |                                                          |  
  /             |                                                          |  
 *              |                                                          |  
 |              |                       C                                  |  
 |              |                         C    C                           |  
 |              |          CC C                                            |  
 |              |               C          C C                             |  
 |              |                                                          |  
 |              |             C  C        C                                |  
 |              .-------------------C--------------------------------------.  
 |             /                                                          /   
 |            /                                                          /    
 |           /                                                          /     
 |          /                                                          /      
 |         /                                                          /       
 |        /                                                          /        
 |       /                                                          /         
 |      /                                                          /          
 |     /                                                          /           
 |    /                                                          /            
 |   /                                                          /             
 |  /                                                          /              
 | /                                                          /               
 |/                                                          /                
 *----------------------------------------------------------*                 

Positions:
   0 C     14.312844   10.358931    9.586714
   1 C     13.198307   14.213456    9.305401
   2 C      7.897375   12.903943    9.174817
   3 C     12.381013    7.665411    8.446692
   4 C     15.166873   13.800406    8.941526
   5 C     14.962268   11.783141    8.378314
   6 C      7.607930   11.066608    9.565520
   7 C      8.914905   12.104248    9.112239
   8 C     14.415132    8.601927    8.750402
   9 C      9.813212   10.770088    8.993087
  10 C     12.057305   14.535436    9.687903
  11 C      9.946398    7.537531    9.522489
  12 C     11.244836    7.702721    9.161527

Unit cell:
           periodic     x           y           z      points  spacing
  1. axis:    no    24.000000    0.000000    0.000000   120     0.2000
  2. axis:    no     0.000000   24.000000    0.000000   120     0.2000
  3. axis:    no     0.000000    0.000000   18.000000    88     0.2045

  Lengths:  24.000000  24.000000  18.000000
  Angles:   90.000000  90.000000  90.000000

Effective grid spacing dv^(1/3) = 0.2015

                     log10-error:    total        iterations:
           time      wfs    density  energy       fermi  poisson
iter:   1  09:29:51          +inf   -64.627307    3      5      
iter:   2  09:29:51         -1.55   -64.492032    3      2      
iter:   3  09:29:52         -1.87   -64.466666    3      2      
iter:   4  09:29:52         -2.01   -64.469338    2      2      
iter:   5  09:29:53         -2.02   -64.457883    2      1      
iter:   6  09:29:53         -2.14   -64.447080    3      2      
iter:   7  09:29:54         -2.29   -64.459813    3      2      
iter:   8  09:29:54         -2.19   -64.447085    3      2      
iter:   9  09:29:55         -2.68   -64.441121    2      1      
iter:  10  09:29:55         -2.77   -64.448035    3      2      
iter:  11  09:29:56         -2.83   -64.445090    2      1      
iter:  12  09:29:56         -3.18   -64.444478    2      1      
iter:  13  09:29:56         -3.31   -64.446547    2      1      
iter:  14  09:29:57         -3.35   -64.446311    2      1      
iter:  15  09:29:57         -3.44   -64.445094    2      1      
iter:  16  09:29:58         -3.70   -64.446285    2      1      
iter:  17  09:29:58         -3.84   -64.446124    2      1      
iter:  18  09:29:58         -4.03   -64.446678    2      1      

Converged after 18 iterations.

Dipole moment: (0.583545, -0.685562, -0.203852) |e|*Ang

Energy contributions relative to reference atoms: (reference = -13359.165501)

Kinetic:         -1.523443
Potential:      -17.060032
External:        +0.000000
XC:             -46.938524
Entropy (-ST):   -0.303507
Local:           +1.227073
--------------------------
Free energy:    -64.598432
Extrapolated:   -64.446678

Fermi level: -6.39670

 Band  Eigenvalues  Occupancy
    0    -21.95892    2.00000
    1    -20.68947    2.00000
    2    -18.65787    2.00000
    3    -17.68055    2.00000
    4    -17.01633    2.00000
    5    -16.90539    2.00000
    6    -15.78861    2.00000
    7    -14.17076    2.00000
    8    -14.16127    2.00000
    9    -12.09020    2.00000
   10     -9.83836    2.00000
   11     -9.63429    2.00000
   12     -9.60434    2.00000
   13     -9.29336    2.00000
   14     -9.23410    2.00000
   15     -9.07172    2.00000
   16     -8.45745    2.00000
   17     -8.09611    2.00000
   18     -7.97756    2.00000
   19     -7.78473    2.00000
   20     -7.50949    1.99997
   21     -7.10785    1.99837
   22     -7.02322    1.99620
   23     -6.80860    1.96800
   24     -6.72212    1.92565
   25     -6.51669    1.53701
   26     -6.29002    0.51204
   27     -6.04904    0.05998
   28     -5.71219    0.00213
   29     -5.58696    0.00061
   30     -5.32137    0.00004
   31     -5.14867    0.00001
   32     -4.74615    0.00000
   33     -4.39891    0.00000
   34     -3.51027    0.00000
   35     -3.36310    0.00000
   36     -2.71822    0.00000
   37     -2.24638    0.00000
   38     -1.03098    0.00000
   39     -0.74969    0.00000
   40     -0.50026    0.00000
   41     -0.30103    0.00000
   42     -0.11491    0.00000
   43     -0.02440    0.00000
   44      0.29125    0.00000
   45      0.67109    0.00000
   46      0.79736    0.00000
   47      3.02732    0.00000
   48      5.98229    0.00000
   49      6.87444    0.00000
   50      7.47128    0.00000
   51      7.99323    0.00000
   52      8.11873    0.00000
   53      8.23872    0.00000
   54      8.51627    0.00000
   55      8.76676    0.00000
   56      8.77465    0.00000
   57      8.96038    0.00000
   58      9.10109    0.00000
   59      9.29091    0.00000
   60      9.35420    0.00000
   61      9.68886    0.00000
   62      9.89198    0.00000
   63     10.11673    0.00000
   64     10.15556    0.00000
   65     10.35399    0.00000
   66     10.47730    0.00000
   67     10.58585    0.00000
   68     10.69947    0.00000
   69     10.81450    0.00000
   70     11.06492    0.00000
   71     11.32134    0.00000
   72     11.45657    0.00000
   73     11.49327    0.00000
   74     11.58091    0.00000
   75     11.88225    0.00000


Forces in eV/Ang:
  0 C     1.76845   -0.77821   -5.47471
  1 C     8.84267   -2.33190   -2.41543
  2 C    -3.81744    0.62950    0.69805
  3 C     0.04165    0.94422    1.07976
  4 C    -5.04005   -1.96087    0.18740
  5 C    -1.59962   -0.85811    4.02326
  6 C     3.31202    2.96642   -1.34685
  7 C     4.79751   -7.80019   -0.14155
  8 C    -1.52415    3.88301    1.93828
  9 C    -4.19276    4.14251    0.79621
 10 C    -4.02516    1.08817    1.38155
 11 C     1.10743    0.18958   -0.33451
 12 C     0.38588   -0.20049   -0.46336

System changes: positions 

Initializing position-dependent things.

Density initialized from wave functions
                .----------------------------------------------------------.  
               /|                                                          |  
              / |                                                          |  
             /  |                                                          |  
            /   |                                                          |  
           /    |                                                          |  
          /     |                                                          |  
         /      |                                                          |  
        /       |                                                          |  
       /        |                                                          |  
      /         |                                                          |  
     /          |                                                          |  
    /           |                                                          |  
   /            |                                                          |  
  /             |                                                          |  
 *              |                                                          |  
 |              |                       C                                  |  
 |              |                         C    C                           |  
 |              |          CC C                                            |  
 |              |               C          C C                             |  
 |              |                                                          |  
 |              |             C  C        C                                |  
 |              .-------------------C--------------------------------------.  
 |             /                                                          /   
 |            /                                                          /    
 |           /                                                          /     
 |          /                                                          /      
 |         /                                                          /       
 |        /                                                          /        
 |       /                                                          /         
 |      /                                                          /          
 |     /                                                          /           
 |    /                                                          /            
 |   /                                                          /             
 |  /                                                          /              
 | /                                                          /               
 |/                                                          /                
 *----------------------------------------------------------*                 

Positions:
   0 C     14.325035   10.354072    9.548928
   1 C     13.224481   14.207302    9.300841
   2 C      7.897485   12.890455    9.178022
   3 C     12.382640    7.671334    8.452293
   4 C     15.130883   13.788711    8.943691
   5 C     14.950639   11.774464    8.405609
   6 C      7.629370   11.085360    9.556904
   7 C      8.921817   12.071437    9.112497
   8 C     14.405705    8.630077    8.763765
   9 C      9.785406   10.797143    8.998359
  10 C     12.065806   14.532514    9.684876
  11 C      9.952405    7.538505    9.520581
  12 C     11.246843    7.701854    9.159624

Unit cell:
           periodic     x           y           z      points  spacing
  1. axis:    no    24.000000    0.000000    0.000000   120     0.2000
  2. axis:    no     0.000000   24.000000    0.000000   120     0.2000
  3. axis:    no     0.000000    0.000000   18.000000    88     0.2045

  Lengths:  24.000000  24.000000  18.000000
  Angles:   90.000000  90.000000  90.000000

Effective grid spacing dv^(1/3) = 0.2015

                     log10-error:    total        iterations:
           time      wfs    density  energy       fermi  poisson
iter:   1  09:29:59          +inf   -66.247485    3      5      
iter:   2  09:30:00         -1.53   -66.114351    3      2      
iter:   3  09:30:00         -1.82   -66.080914    2      2      
iter:   4  09:30:01         -1.98   -66.080367    2      2      
iter:   5  09:30:01         -2.02   -66.073220    2      2      
iter:   6  09:30:02         -2.11   -66.056546    3      2      
iter:   7  09:30:02         -2.27   -66.062681    2      2      
iter:   8  09:30:03         -2.44   -66.057891    3      2      
iter:   9  09:30:03         -2.67   -66.058893    2      2      
iter:  10  09:30:04         -2.88   -66.055000    2      1      
iter:  11  09:30:04         -3.01   -66.054507    2      1      
iter:  12  09:30:04         -3.23   -66.057881    2      1      
iter:  13  09:30:05         -3.31   -66.057863    2      1      
iter:  14  09:30:05         -3.41   -66.057041    2      1      
iter:  15  09:30:06         -3.66   -66.058158    2      1      
iter:  16  09:30:06         -3.77   -66.058492    2      1      
iter:  17  09:30:07         -3.86   -66.058210    2      1      
iter:  18  09:30:07         -3.94   -66.058110    2      1      
iter:  19  09:30:07         -4.18   -66.058332    2      1      

Converged after 19 iterations.

Dipole moment: (0.585668, -0.629141, -0.200783) |e|*Ang

Energy contributions relative to reference atoms: (reference = -13359.165501)

Kinetic:         -1.200067
Potential:      -17.686685
External:        +0.000000
XC:             -48.280072
Entropy (-ST):   -0.253402
Local:           +1.235193
--------------------------
Free energy:    -66.185033
Extrapolated:   -66.058332

Fermi level: -6.42399

 Band  Eigenvalues  Occupancy
    0    -22.25484    2.00000
    1    -20.73332    2.00000
    2    -18.69834    2.00000
    3    -17.73093    2.00000
    4    -17.36883    2.00000
    5    -17.11987    2.00000
    6    -15.92341    2.00000
    7    -14.29537    2.00000
    8    -14.13278    2.00000
    9    -12.00362    2.00000
   10     -9.86254    2.00000
   11     -9.72566    2.00000
   12     -9.67117    2.00000
   13     -9.32164    2.00000
   14     -9.25713    2.00000
   15     -9.09707    2.00000
   16     -8.36095    2.00000
   17     -8.15214    2.00000
   18     -8.02714    2.00000
   19     -7.83250    2.00000
   20     -7.57668    1.99998
   21     -7.18500    1.99901
   22     -7.09129    1.99747
   23     -6.88988    1.98122
   24     -6.76571    1.93647
   25     -6.57935    1.65085
   26     -6.28450    0.39724
   27     -6.02465    0.03620
   28     -5.67758    0.00115
   29     -5.56564    0.00037
   30     -5.29326    0.00002
   31     -5.08861    0.00000
   32     -4.56507    0.00000
   33     -4.36921    0.00000
   34     -3.36229    0.00000
   35     -3.16307    0.00000
   36     -2.69313    0.00000
   37     -1.89200    0.00000
   38     -0.70143    0.00000
   39     -0.43516    0.00000
   40     -0.27858    0.00000
   41     -0.06675    0.00000
   42      0.09689    0.00000
   43      0.23920    0.00000
   44      0.40708    0.00000
   45      0.51950    0.00000
   46      0.70281    0.00000
   47      3.83814    0.00000
   48      6.04879    0.00000
   49      6.90999    0.00000
   50      7.49184    0.00000
   51      7.99221    0.00000
   52      8.14261    0.00000
   53      8.24902    0.00000
   54      8.56073    0.00000
   55      8.75732    0.00000
   56      8.78206    0.00000
   57      8.98655    0.00000
   58      9.12531    0.00000
   59      9.26854    0.00000
   60      9.35574    0.00000
   61      9.70053    0.00000
   62      9.89197    0.00000
   63     10.12605    0.00000
   64     10.16296    0.00000
   65     10.37957    0.00000
   66     10.47957    0.00000
   67     10.59170    0.00000
   68     10.69283    0.00000
   69     10.82640    0.00000
   70     11.04379    0.00000
   71     11.30756    0.00000
   72     11.43983    0.00000
   73     11.46574    0.00000
   74     11.60615    0.00000
   75     11.85554    0.00000


Forces in eV/Ang:
  0 C     1.82894   -0.67967   -5.67659
  1 C     8.11923   -2.14367   -2.11590
  2 C    -3.09546    0.12634    0.65110
  3 C     0.13582    0.88840    0.92045
  4 C    -5.38872   -1.69106    0.38252
  5 C    -1.76560   -1.46010    4.12135
  6 C     3.01235    2.74046   -1.24038
  7 C     3.95287   -6.46038   -0.12937
  8 C    -1.36074    4.25316    1.97524
  9 C    -3.83016    3.61164    0.74553
 10 C    -2.90645    0.77301    0.99209
 11 C     0.92987    0.16855   -0.29288
 12 C     0.36443   -0.13682   -0.34441

System changes: positions 

Initializing position-dependent things.

Density initialized from wave functions
                .----------------------------------------------------------.  
               /|                                                          |  
              / |                                                          |  
             /  |                                                          |  
            /   |                                                          |  
           /    |                                                          |  
          /     |                                                          |  
         /      |                                                          |  
        /       |                                                          |  
       /        |                                                          |  
      /         |                                                          |  
     /          |                                                          |  
    /           |                                                          |  
   /            |                                                          |  
  /             |                                                          |  
 *              |                                                          |  
 |              |                       C                                  |  
 |              |                         C    C                           |  
 |              |          CC C                                            |  
 |              |               C          C C                             |  
 |              |                                                          |  
 |              |             C  C        C                                |  
 |              .-------------------C--------------------------------------.  
 |             /                                                          /   
 |            /                                                          /    
 |           /                                                          /     
 |          /                                                          /      
 |         /                                                          /       
 |        /                                                          /        
 |       /                                                          /         
 |      /                                                          /          
 |     /                                                          /           
 |    /                                                          /            
 |   /                                                          /             
 |  /                                                          /              
 | /                                                          /               
 |/                                                          /                
 *----------------------------------------------------------*                 

Positions:
   0 C     14.337229   10.349986    9.511052
   1 C     13.251172   14.200752    9.296299
   2 C      7.896392   12.878095    9.181150
   3 C     12.384056    7.676902    8.457502
   4 C     15.093971   13.778983    8.947032
   5 C     14.938381   11.762428    8.432853
   6 C      7.648148   11.102323    9.549196
   7 C      8.928042   12.045308    9.112669
   8 C     14.397466    8.659393    8.776842
   9 C      9.761506   10.819155    9.003065
  10 C     12.075076   14.529462    9.681584
  11 C      9.957737    7.539482    9.518823
  12 C     11.248952    7.701203    9.157984

Unit cell:
           periodic     x           y           z      points  spacing
  1. axis:    no    24.000000    0.000000    0.000000   120     0.2000
  2. axis:    no     0.000000   24.000000    0.000000   120     0.2000
  3. axis:    no     0.000000    0.000000   18.000000    88     0.2045

  Lengths:  24.000000  24.000000  18.000000
  Angles:   90.000000  90.000000  90.000000

Effective grid spacing dv^(1/3) = 0.2015

                     log10-error:    total        iterations:
           time      wfs    density  energy       fermi  poisson
iter:   1  09:30:08          +inf   -67.723258    2      5      
iter:   2  09:30:09         -1.55   -67.598936    3      2      
iter:   3  09:30:09         -1.81   -67.560736    2      2      
iter:   4  09:30:10         -2.01   -67.556588    2      2      
iter:   5  09:30:10         -2.09   -67.550749    2      2      
iter:   6  09:30:11         -2.16   -67.535231    3      2      
iter:   7  09:30:11         -2.32   -67.540360    2      2      
iter:   8  09:30:12         -2.60   -67.537826    2      2      
iter:   9  09:30:12         -2.75   -67.535227    2      1      
iter:  10  09:30:13         -2.94   -67.536910    2      1      
iter:  11  09:30:13         -3.03   -67.535408    2      1      
iter:  12  09:30:13         -3.19   -67.536342    2      1      
iter:  13  09:30:14         -3.37   -67.539417    2      1      
iter:  14  09:30:14         -3.48   -67.539335    2      1      
iter:  15  09:30:15         -3.58   -67.538614    2      1      
iter:  16  09:30:15         -3.73   -67.539516    2      1      
iter:  17  09:30:15         -3.76   -67.539664    2      1      
iter:  18  09:30:16         -3.85   -67.538914    2      1      
iter:  19  09:30:16         -4.01   -67.538702    2      1      

Converged after 19 iterations.

Dipole moment: (0.573115, -0.575070, -0.193821) |e|*Ang

Energy contributions relative to reference atoms: (reference = -13359.165501)

Kinetic:         -0.098982
Potential:      -18.862306
External:        +0.000000
XC:             -49.717242
Entropy (-ST):   -0.201408
Local:           +1.240533
--------------------------
Free energy:    -67.639405
Extrapolated:   -67.538702

Fermi level: -6.44359

 Band  Eigenvalues  Occupancy
    0    -22.55256    2.00000
    1    -20.77111    2.00000
    2    -18.74365    2.00000
    3    -17.78377    2.00000
    4    -17.68774    2.00000
    5    -17.33628    2.00000
    6    -16.04952    2.00000
    7    -14.45623    2.00000
    8    -14.10662    2.00000
    9    -11.91074    2.00000
   10    -10.03627    2.00000
   11     -9.81860    2.00000
   12     -9.62753    2.00000
   13     -9.30967    2.00000
   14     -9.26891    2.00000
   15     -9.12609    2.00000
   16     -8.30985    2.00000
   17     -8.21125    2.00000
   18     -8.03878    2.00000
   19     -7.85909    2.00000
   20     -7.64017    1.99999
   21     -7.26332    1.99945
   22     -7.15554    1.99838
   23     -6.97171    1.98988
   24     -6.80667    1.94838
   25     -6.64082    1.75572
   26     -6.26422    0.28524
   27     -5.99278    0.02180
   28     -5.67457    0.00091
   29     -5.53605    0.00023
   30     -5.27037    0.00002
   31     -4.98669    0.00000
   32     -4.41305    0.00000
   33     -4.34306    0.00000
   34     -3.19729    0.00000
   35     -2.97954    0.00000
   36     -2.68812    0.00000
   37     -1.47579    0.00000
   38     -0.57982    0.00000
   39     -0.19706    0.00000
   40      0.00336    0.00000
   41      0.06620    0.00000
   42      0.26277    0.00000
   43      0.31732    0.00000
   44      0.44337    0.00000
   45      0.67671    0.00000
   46      1.04793    0.00000
   47      4.48124    0.00000
   48      6.11303    0.00000
   49      6.93636    0.00000
   50      7.51324    0.00000
   51      7.99788    0.00000
   52      8.16066    0.00000
   53      8.26198    0.00000
   54      8.60833    0.00000
   55      8.74401    0.00000
   56      8.79679    0.00000
   57      9.02852    0.00000
   58      9.15476    0.00000
   59      9.24981    0.00000
   60      9.36042    0.00000
   61      9.70941    0.00000
   62      9.89111    0.00000
   63     10.12815    0.00000
   64     10.19126    0.00000
   65     10.40220    0.00000
   66     10.48380    0.00000
   67     10.58682    0.00000
   68     10.69539    0.00000
   69     10.83907    0.00000
   70     11.02895    0.00000
   71     11.29200    0.00000
   72     11.39689    0.00000
   73     11.47499    0.00000
   74     11.63964    0.00000
   75     11.84363    0.00000


Forces in eV/Ang:
  0 C     1.87618   -0.53944   -5.82629
  1 C     7.53325   -2.00051   -1.86697
  2 C    -2.57245   -0.26513    0.60127
  3 C     0.21247    0.83378    0.75563
  4 C    -5.73953   -1.37369    0.57283
  5 C    -1.93571   -2.08515    4.14890
  6 C     2.67912    2.51554   -1.13215
  7 C     3.21114   -5.04208   -0.12705
  8 C    -1.15482    4.62606    2.03453
  9 C    -3.25496    2.80427    0.67637
 10 C    -1.93263    0.49515    0.66625
 11 C     0.78470    0.15167   -0.26167
 12 C     0.30001   -0.08749   -0.21691

System changes: positions 

Initializing position-dependent things.

Density initialized from wave functions
                .----------------------------------------------------------.  
               /|                                                          |  
              / |                                                          |  
             /  |                                                          |  
            /   |                                                          |  
           /    |                                                          |  
          /     |                                                          |  
         /      |                                                          |  
        /       |                                                          |  
       /        |                                                          |  
      /         |                                                          |  
     /          |                                                          |  
    /           |                                                          |  
   /            |                                                          |  
  /             |                                                          |  
 *              |                                                          |  
 |              |                       C                                  |  
 |              |                          C   C                           |  
 |              |          CC C                                            |  
 |              |               C          C C                             |  
 |              |                                                          |  
 |              |             C  C        C                                |  
 |              .-------------------C--------------------------------------.  
 |             /                                                          /   
 |            /                                                          /    
 |           /                                                          /     
 |          /                                                          /      
 |         /                                                          /       
 |        /                                                          /        
 |       /                                                          /         
 |      /                                                          /          
 |     /                                                          /           
 |    /                                                          /            
 |   /                                                          /             
 |  /                                                          /              
 | /                                                          /               
 |/                                                          /                
 *----------------------------------------------------------*                 

Positions:
   0 C     14.349464   10.346728    9.473108
   1 C     13.278565   14.193801    9.291678
   2 C      7.893703   12.866652    9.184170
   3 C     12.385322    7.682321    8.462388
   4 C     15.055951   13.770836    8.951128
   5 C     14.925521   11.747894    8.459745
   6 C      7.665213   11.118401    9.541961
   7 C      8.933841   12.024419    9.112751
   8 C     14.390287    8.689858    8.790138
   9 C      9.741742   10.835707    9.007316
  10 C     12.084874   14.526269    9.678238
  11 C      9.962947    7.540495    9.517055
  12 C     11.250685    7.700561    9.156643

Unit cell:
           periodic     x           y           z      points  spacing
  1. axis:    no    24.000000    0.000000    0.000000   120     0.2000
  2. axis:    no     0.000000   24.000000    0.000000   120     0.2000
  3. axis:    no     0.000000    0.000000   18.000000    88     0.2045

  Lengths:  24.000000  24.000000  18.000000
  Angles:   90.000000  90.000000  90.000000

Effective grid spacing dv^(1/3) = 0.2015

                     log10-error:    total        iterations:
           time      wfs    density  energy       fermi  poisson
iter:   1  09:30:17          +inf   -69.108982    3      5      
iter:   2  09:30:18         -1.57   -68.992389    3      2      
iter:   3  09:30:18         -1.81   -68.950309    2      2      
iter:   4  09:30:19         -2.02   -68.943087    2      2      
iter:   5  09:30:19         -2.14   -68.937742    2      2      
iter:   6  09:30:20         -2.22   -68.924167    3      2      
iter:   7  09:30:20         -2.45   -68.924661    2      1      
iter:   8  09:30:21         -2.69   -68.928310    2      2      
iter:   9  09:30:21         -2.91   -68.926722    2      1      
iter:  10  09:30:21         -3.02   -68.927076    2      1      
[...]
   /            |                                                          |  
  /             |                                                          |  
 *              |                                                          |  
 |              |                            C                             |  
 |              |                           C                              |  
 |              |            C  C          C                               |  
 |              |            C  C       CC                                 |  
 |              |                     C                                    |  
 |              |                   C                                      |  
 |              .-----------------C----------------------------------------.  
 |             /                C                                         /   
 |            /                                                          /    
 |           /                                                          /     
 |          /                                                          /      
 |         /                                                          /       
 |        /                                                          /        
 |       /                                                          /         
 |      /                                                          /          
 |     /                                                          /           
 |    /                                                          /            
 |   /                                                          /             
 |  /                                                          /              
 | /                                                          /               
 |/                                                          /                
 *----------------------------------------------------------*                 

Positions:
   0 C     13.013579   10.635944    8.915660
   1 C     13.841021   14.443173    8.877588
   2 C      8.259824   12.901498    9.299795
   3 C     12.241473    8.162205    8.916432
   4 C     13.593886   13.155994    8.884066
   5 C     13.334195   11.892830    8.904632
   6 C      8.417785   11.532590    8.757584
   7 C      9.561865   12.235473    9.499029
   8 C     12.662248    9.386269    8.935641
   9 C      9.669085   10.823854    9.085817
  10 C     13.962402   15.755737    8.897953
  11 C     11.319263    5.707224    8.748647
  12 C     11.807072    6.925705    8.865172

Unit cell:
           periodic     x           y           z      points  spacing
  1. axis:    no    24.000000    0.000000    0.000000   120     0.2000
  2. axis:    no     0.000000   24.000000    0.000000   120     0.2000
  3. axis:    no     0.000000    0.000000   18.000000    88     0.2045

  Lengths:  24.000000  24.000000  18.000000
  Angles:   90.000000  90.000000  90.000000

Effective grid spacing dv^(1/3) = 0.2015

                     log10-error:    total        iterations:
           time      wfs    density  energy       fermi  poisson
iter:   1  09:45:42          +inf   -89.186253    2      5      
iter:   2  09:45:42         -2.33   -89.184858    2      1      
iter:   3  09:45:42         -2.38   -89.182643    2      2      
iter:   4  09:45:43         -2.64   -89.181605    2      2      
iter:   5  09:45:43         -2.77   -89.184815    2      2      
iter:   6  09:45:44         -2.49   -89.181077    2      1      
iter:   7  09:45:44         -2.76   -89.181309    2      2      
iter:   8  09:45:45         -2.91   -89.181742    2      1      
iter:   9  09:45:45         -3.60   -89.181250    2      1      
iter:  10  09:45:46         -3.61   -89.181071    2      1      
iter:  11  09:45:46         -3.12   -89.181345    2      1      
iter:  12  09:45:47         -3.52   -89.181351    2      1      
iter:  13  09:45:47         -4.05   -89.181247    2      1      

Converged after 13 iterations.

Dipole moment: (0.125763, -0.065587, -0.013006) |e|*Ang

Energy contributions relative to reference atoms: (reference = -13359.165501)

Kinetic:        +56.428401
Potential:      -64.447918
External:        +0.000000
XC:             -82.616266
Entropy (-ST):   -0.018217
Local:           +1.463644
--------------------------
Free energy:    -89.190356
Extrapolated:   -89.181247

Fermi level: -6.40864

 Band  Eigenvalues  Occupancy
    0    -25.67236    2.00000
    1    -22.16342    2.00000
    2    -21.48940    2.00000
    3    -20.58523    2.00000
    4    -19.56075    2.00000
    5    -18.69434    2.00000
    6    -18.54064    2.00000
    7    -17.26653    2.00000
    8    -16.07432    2.00000
    9    -15.27542    2.00000
   10    -14.00873    2.00000
   11    -11.61261    2.00000
   12    -10.95969    2.00000
   13    -10.91265    2.00000
   14    -10.42229    2.00000
   15    -10.01443    2.00000
   16     -9.95337    2.00000
   17     -9.88531    2.00000
   18     -8.64253    2.00000
   19     -8.63023    2.00000
   20     -7.53326    1.99997
   21     -7.19088    1.99920
   22     -7.17512    1.99906
   23     -7.13457    1.99859
   24     -7.08000    1.99757
   25     -6.95855    1.99185
   26     -5.90975    0.01353
   27     -5.42856    0.00011
   28     -5.41654    0.00010
   29     -4.03627    0.00000
   30     -3.07655    0.00000
   31     -3.06655    0.00000
   32     -2.15913    0.00000
   33     -1.00304    0.00000
   34     -0.59230    0.00000
   35     -0.58095    0.00000
   36      1.88818    0.00000
   37      1.90860    0.00000
   38      2.49491    0.00000
   39      3.48679    0.00000
   40      3.86356    0.00000
   41      4.18719    0.00000
   42      4.29829    0.00000
   43      4.47655    0.00000
   44      5.17458    0.00000
   45      5.49389    0.00000
   46      5.76352    0.00000
   47      6.49555    0.00000
   48      7.15730    0.00000
   49      7.44184    0.00000
   50      7.68248    0.00000
   51      7.71463    0.00000
   52      8.29889    0.00000
   53      8.50502    0.00000
   54      8.67409    0.00000
   55      8.74396    0.00000
   56      9.05733    0.00000
   57      9.35650    0.00000
   58      9.40715    0.00000
   59      9.42167    0.00000
   60      9.63497    0.00000
   61     10.16600    0.00000
   62     10.26503    0.00000
   63     10.37491    0.00000
   64     10.42641    0.00000
   65     10.63108    0.00000
   66     10.73347    0.00000
   67     11.54431    0.00000
   68     11.76309    0.00000
   69     11.85782    0.00000
   70     12.19239    0.00000
   71     12.80829    0.00000
   72     12.89810    0.00000
   73     13.00032    0.00000
   74     13.03360    0.00000
   75     13.37096    0.00000


Forces in eV/Ang:
  0 C    -0.04633   -0.11676    0.03299
  1 C    -0.02624    0.13592    0.00193
  2 C    -0.03649   -0.01353   -0.03125
  3 C     0.05602    0.08348   -0.06397
  4 C     0.02332    0.04170    0.04691
  5 C    -0.00095   -0.15060   -0.01796
  6 C    -0.01954    0.00471    0.00710
  7 C     0.06649    0.03621    0.06278
  8 C     0.01516   -0.01576   -0.01194
  9 C    -0.06191    0.00591   -0.01570
 10 C     0.05287    0.01934   -0.01390
 11 C    -0.01732   -0.08509    0.01876
 12 C     0.01776    0.07040   -0.00470

System changes: positions 

Initializing position-dependent things.

Density initialized from wave functions
                .----------------------------------------------------------.  
               /|                                                          |  
              / |                                                          |  
             /  |                                                          |  
            /   |                                                          |  
           /    |                                                          |  
          /     |                                                          |  
         /      |                                                          |  
        /       |                                                          |  
       /        |                                                          |  
      /         |                                                          |  
     /          |                                                          |  
    /           |                                                          |  
   /            |                                                          |  
  /             |                                                          |  
 *              |                                                          |  
 |              |                            C                             |  
 |              |                           C                              |  
 |              |            C  C          C                               |  
 |              |            C  C       CC                                 |  
 |              |                     C                                    |  
 |              |                   C                                      |  
 |              .-----------------C----------------------------------------.  
 |             /                C                                         /   
 |            /                                                          /    
 |           /                                                          /     
 |          /                                                          /      
 |         /                                                          /       
 |        /                                                          /        
 |       /                                                          /         
 |      /                                                          /          
 |     /                                                          /           
 |    /                                                          /            
 |   /                                                          /             
 |  /                                                          /              
 | /                                                          /               
 |/                                                          /                
 *----------------------------------------------------------*                 

Positions:
   0 C     13.003628   10.639156    8.915257
   1 C     13.834129   14.448439    8.872333
   2 C      8.262245   12.903947    9.297748
   3 C     12.246425    8.161967    8.916303
   4 C     13.586026   13.160161    8.880869
   5 C     13.322939   11.896327    8.898130
   6 C      8.416698   11.538377    8.750682
   7 C      9.562465   12.230042    9.502695
   8 C     12.658135    9.388645    8.935995
   9 C      9.658949   10.818704    9.081639
  10 C     13.978761   15.758645    8.893051
  11 C     11.329616    5.705473    8.735318
  12 C     11.816477    6.923444    8.868456

Unit cell:
           periodic     x           y           z      points  spacing
  1. axis:    no    24.000000    0.000000    0.000000   120     0.2000
  2. axis:    no     0.000000   24.000000    0.000000   120     0.2000
  3. axis:    no     0.000000    0.000000   18.000000    88     0.2045

  Lengths:  24.000000  24.000000  18.000000
  Angles:   90.000000  90.000000  90.000000

Effective grid spacing dv^(1/3) = 0.2015

                     log10-error:    total        iterations:
           time      wfs    density  energy       fermi  poisson
iter:   1  09:45:48          +inf   -89.185178    2      5      
iter:   2  09:45:49         -2.55   -89.184186    2      1      
iter:   3  09:45:49         -2.66   -89.183133    2      1      
iter:   4  09:45:49         -2.87   -89.183141    2      2      
iter:   5  09:45:50         -3.14   -89.183347    2      1      
iter:   6  09:45:50         -3.03   -89.183532    2      1      
iter:   7  09:45:51         -3.49   -89.183590    2      1      
iter:   8  09:45:51         -3.08   -89.183209    2      1      
iter:   9  09:45:52         -3.91   -89.183169    1      1      
iter:  10  09:45:52         -3.87   -89.183121    1      1      
iter:  11  09:45:53         -4.19   -89.183085    1      1      

Converged after 11 iterations.

Dipole moment: (0.116305, -0.068035, -0.010197) |e|*Ang

Energy contributions relative to reference atoms: (reference = -13359.165501)

Kinetic:        +56.177799
Potential:      -64.255383
External:        +0.000000
XC:             -82.556323
Entropy (-ST):   -0.018162
Local:           +1.459902
--------------------------
Free energy:    -89.192166
Extrapolated:   -89.183085

Fermi level: -6.40807

 Band  Eigenvalues  Occupancy
    0    -25.66630    2.00000
    1    -22.16408    2.00000
    2    -21.48644    2.00000
    3    -20.58323    2.00000
    4    -19.55909    2.00000
    5    -18.68890    2.00000
    6    -18.53974    2.00000
    7    -17.26676    2.00000
    8    -16.07132    2.00000
    9    -15.27585    2.00000
   10    -14.01549    2.00000
   11    -11.61054    2.00000
   12    -10.96069    2.00000
   13    -10.91305    2.00000
   14    -10.42534    2.00000
   15    -10.01017    2.00000
   16     -9.95042    2.00000
   17     -9.88432    2.00000
   18     -8.64170    2.00000
   19     -8.62897    2.00000
   20     -7.53770    1.99998
   21     -7.18727    1.99917
   22     -7.17950    1.99911
   23     -7.13706    1.99864
   24     -7.07771    1.99753
   25     -6.95830    1.99188
   26     -5.90880    0.01348
   27     -5.42908    0.00011
   28     -5.41834    0.00010
   29     -4.04552    0.00000
   30     -3.07822    0.00000
   31     -3.06932    0.00000
   32     -2.16555    0.00000
   33     -1.00285    0.00000
   34     -0.59116    0.00000
   35     -0.58238    0.00000
   36      1.87581    0.00000
   37      1.90341    0.00000
   38      2.50569    0.00000
   39      3.48101    0.00000
   40      3.83705    0.00000
   41      4.16950    0.00000
   42      4.29901    0.00000
   43      4.48256    0.00000
   44      5.19914    0.00000
   45      5.46154    0.00000
   46      5.74874    0.00000
   47      6.48314    0.00000
   48      7.16154    0.00000
   49      7.44198    0.00000
   50      7.68341    0.00000
   51      7.71319    0.00000
   52      8.29573    0.00000
   53      8.50874    0.00000
   54      8.67167    0.00000
   55      8.74558    0.00000
   56      9.05808    0.00000
   57      9.35072    0.00000
   58      9.40660    0.00000
   59      9.41830    0.00000
   60      9.63481    0.00000
   61     10.15769    0.00000
   62     10.25786    0.00000
   63     10.37490    0.00000
   64     10.42622    0.00000
   65     10.62497    0.00000
   66     10.73060    0.00000
   67     11.54140    0.00000
   68     11.76373    0.00000
   69     11.85872    0.00000
   70     12.18586    0.00000
   71     12.81647    0.00000
   72     12.89092    0.00000
   73     12.99558    0.00000
   74     13.03282    0.00000
   75     13.35598    0.00000


Forces in eV/Ang:
  0 C    -0.01790   -0.06750    0.01523
  1 C    -0.05153    0.04849    0.00158
  2 C     0.00197   -0.01340   -0.01017
  3 C     0.02030    0.04279   -0.04323
  4 C    -0.00037    0.03087    0.02776
  5 C     0.00847   -0.05085   -0.00380
  6 C    -0.01029    0.02220    0.00250
  7 C     0.00514    0.03722    0.03958
  8 C     0.01459   -0.02949   -0.01249
  9 C    -0.04691    0.00534   -0.00322
 10 C     0.04028    0.01764   -0.02124
 11 C     0.00656   -0.05612    0.01957
 12 C     0.01825    0.04156    0.00299

Timing:                                       incl.     excl.
--------------------------------------------------------------------
Basic WFS set positions:                      0.055     0.046   0.0% |
 Redistribute:                                0.009     0.009   0.0% |
Basis functions set positions:                2.149     2.149   0.0% |
Forces:                                      57.198    47.646   1.0% |
 LCAO forces:                                 9.552     0.129   0.0% |
  Atomic Hamiltonian force:                   0.001     0.001   0.0% |
  Initial:                                    0.083     0.001   0.0% |
   Get density matrix:                        0.082     0.082   0.0% |
  Paw correction:                             0.005     0.005   0.0% |
  Potential:                                  0.080     0.080   0.0% |
  TCI derivative:                             9.253     9.253   0.2% |
  Wait for sum:                               0.001     0.001   0.0% |
LCAO WFS Initialize:                         80.543     0.022   0.0% |
 Density initialized from wave functions:    13.192    13.133   0.3% |
  Calculate density matrix:                   0.056     0.056   0.0% |
  Construct density:                          0.001     0.001   0.0% |
  Symmetrize density:                         0.002     0.002   0.0% |
 Hamiltonian:                                67.328     0.015   0.0% |
  Atomic:                                     0.038     0.037   0.0% |
   XC Correction:                             0.001     0.001   0.0% |
  Calculate atomic Hamiltonians:              0.047     0.047   0.0% |
  Communicate:                                6.433     6.433   0.1% |
  Hartree integrate/restrict:                 1.005     1.005   0.0% |
  Initialize Hamiltonian:                     0.002     0.002   0.0% |
  Poisson:                                   35.681    35.681   0.7% |
  XC 3D grid:                                23.840    23.840   0.5% |
  vbar:                                       0.268     0.268   0.0% |
Redistribute:                                 0.021     0.021   0.0% |
SCF-cycle:                                  866.684     0.840   0.0% |
 Density:                                   172.474     0.041   0.0% |
  Atomic density matrices:                  153.407   153.407   3.1% ||
  Mix:                                       17.643    17.643   0.4% |
  Multipole moments:                          0.407     0.407   0.0% |
  Normalize:                                  0.188     0.188   0.0% |
  Pseudo density:                             0.789     0.291   0.0% |
   Calculate density matrix:                  0.462     0.462   0.0% |
   Construct density:                         0.014     0.014   0.0% |
   Symmetrize density:                        0.023     0.023   0.0% |
 Hamiltonian:                               528.955     0.200   0.0% |
  Atomic:                                     0.404     0.397   0.0% |
   XC Correction:                             0.007     0.007   0.0% |
  Calculate atomic Hamiltonians:              0.552     0.552   0.0% |
  Communicate:                               83.063    83.063   1.7% ||
  Hartree integrate/restrict:                12.890    12.890   0.3% |
  Poisson:                                  123.108   123.108   2.5% ||
  XC 3D grid:                               305.326   305.326   6.2% |-|
  vbar:                                       3.412     3.412   0.1% |
 LCAO eigensolver:                          164.415     0.163   0.0% |
  Calculate projections:                      0.014     0.014   0.0% |
  DenseAtomicCorrection:                      0.040     0.040   0.0% |
  Distribute overlap matrix:                151.330   151.330   3.1% ||
  Orbital Layouts:                           12.710    12.710   0.3% |
  Potential matrix:                           0.159     0.159   0.0% |
Set symmetry:                                 0.102     0.102   0.0% |
TCI: Calculate S, T, P:                       0.516     0.516   0.0% |
TCI: Evaluate splines:                        0.062     0.062   0.0% |
Other:                                     3903.654  3903.654  79.5% |-------------------------------|
--------------------------------------------------------------------
Total:                                               4910.983 100.0%

Memory usage: 221.80 MiB
Date: Fri Mar 23 10:50:51 2018
