
  ___ ___ ___ _ _ _  
 |   |   |_  | | | | 
 | | | | | . | | | | 
 |__ |  _|___|_____|  1.3.1b1
 |___|_|             

User:   mkb@s91n12.grendel.cscaa.dk
Date:   Fri Mar 23 10:09:10 2018
Arch:   x86_64
Pid:    423519
Python: 2.7.13
gpaw:   /home/mkb/gpaw/gpaw
_gpaw:  /home/mkb/gpaw/build/bin.linux-x86_64-2.7/gpaw-python
ase:    /home/mkb/ase/ase (version 3.15.1b1)
numpy:  /comm/swstack/core/python/2.7.13/lib/python2.7/site-packages/numpy (version 1.13.3)
scipy:  /comm/swstack/core/python/2.7.13/lib/python2.7/site-packages/scipy (version 0.19.1)
units:  Angstrom and eV
cores:  36
Extra parameters: {'blacs': True}

Input parameters:
  basis: dzp
  gpts: [120 120  88]
  kpts: [1 1 1]
  maxiter: 99
  mixer: {backend: pulay,
          beta: 0.05,
          method: separate,
          nmaxold: 5,
          weight: 75}
  mode: lcao
  nbands: -50
  occupations: {name: fermi-dirac,
                width: 0.1}
  poissonsolver: {eps: 1e-07,
                  name: fd,
                  nn: 3,
                  relax: GS}
  xc: PBE

System changes: positions, numbers, cell, pbc, initial_charges, initial_magmoms 

Initialize ...

C-setup:
  name: Carbon
  id: 4aa54d4b901d75f77cc0ea3eec22967b
  Z: 6
  valence: 4
  core: 2
  charge: 0.0
  file: /home/esb/DFT/gpaw-setups-0.8.7929/C.PBE.gz
  cutoffs: 0.64(comp), 1.14(filt), 1.14(core), lmax=2
  valence states:
                energy  radius
    2s(2.00)   -13.751   0.635
    2p(2.00)    -5.284   0.635
    *s          13.461   0.635
    *p          21.927   0.635
    *d           0.000   0.635

  LCAO basis set for C:
    Name: dzp
    File: /home/esb/DFT/gpaw-setups-0.8.7929/C.dzp.basis.gz
    Number of radial functions: 5
    Number of spherical harmonics: 13
      l=0, rc=5.5469 Bohr: 2s-sz confined orbital
      l=1, rc=6.6719 Bohr: 2p-sz confined orbital
      l=0, rc=3.0312 Bohr: 2s-dz split-valence wave
      l=1, rc=3.7500 Bohr: 2p-dz split-valence wave
      l=2, rc=6.6719 Bohr: d-type Gaussian polarization

Reference energy: -13359.165501

Spin-paired calculation

Occupation numbers:
  Fermi-Dirac: width=0.1000 eV

Convergence criteria:
  Maximum total energy change: 0.0005 eV / electron
  Maximum integral of absolute density change: 0.0001 electrons
  Maximum integral of absolute eigenstate change: 4e-08 eV^2
  Maximum number of iterations: 99

Symmetries present (total): 1

  ( 1  0  0)
  ( 0  1  0)
  ( 0  0  1)

1 k-point (Gamma)
1 k-point in the irreducible part of the Brillouin zone
       k-points in crystal coordinates                weights
   0:     0.00000000    0.00000000    0.00000000          1/1

Wave functions: LCAO
  Diagonalizer: Serial LAPACK
  Atomic Correction: dense with blas
  Datatype: float
  Eigensolver: None 

LCAO using direct dense diagonalizer 

Densities:
  Coarse grid: 120*120*88 grid
  Fine grid: 240*240*176 grid
  Total Charge: 0.000000 

Density mixing:
  Method: separate
  Backend: pulay
  Linear mixing parameter: 0.05
  Mixing with 5 old densities
  Damping of long wave oscillations: 75 

Hamiltonian:
  XC and Coulomb potentials evaluated on a 240*240*176 grid
  Using the PBE Exchange-Correlation functional
  Interpolation: tri-quintic (5. degree polynomial)
  Poisson solver: Gauss-Seidel solver with 5 multi-grid levels
    Coarsest grid: 15 x 15 x 11 points
    Stencil: 6*3+1=19 point O(h^6) finite-difference Laplacian
    Max iterations: 1000
    Tolerance: 1.000000e-07 

Memory estimate:
  Process memory now: 212.62 MiB
  Calculator: 19.91 MiB
    Density: 9.40 MiB
      Arrays: 6.69 MiB
      Localized functions: 0.21 MiB
      Mixer: 2.50 MiB
    Hamiltonian: 9.40 MiB
      Arrays: 4.38 MiB
      XC: 0.00 MiB
      Poisson: 5.01 MiB
      vbar: 0.02 MiB
    Wavefunctions: 1.11 MiB
      C [qnM]: 0.10 MiB
      S, T [2 x qmm]: 0.44 MiB
      P [aqMi]: 0.00 MiB
      TCI: 0.00 MiB
      BasisFunctions: 0.57 MiB
      Eigensolver: 0.00 MiB

Total number of cores used: 36
Domain decomposition: 3 x 4 x 3

Number of atoms: 13
Number of atomic orbitals: 169
Number of bands in calculation: 76
Bands to converge: occupied states only
Number of valence electrons: 52

... initialized

Initializing position-dependent things.

Density initialized from atomic densities
                .----------------------------------------------------------.  
               /|                                                          |  
              / |                                                          |  
             /  |                                                          |  
            /   |                                                          |  
           /    |                                                          |  
          /     |                                                          |  
         /      |                                                          |  
        /       |                                                          |  
       /        |                                                          |  
      /         |                                                          |  
     /          |                                                          |  
    /           |                                                          |  
   /            |                                                          |  
  /             |                                                          |  
 *              |                                                          |  
 |              |                           C                              |  
 |              |               C         C                                |  
 |              |               C        C                                 |  
 |              |             C        C C                                 |  
 |              |                      C                                   |  
 |              |                       C                                  |  
 |              .------------------C---------------------------------------.  
 |             /                 C                                        /   
 |            /                                                          /    
 |           /                                                          /     
 |          /                                                          /      
 |         /                                                          /       
 |        /                                                          /        
 |       /                                                          /         
 |      /                                                          /          
 |     /                                                          /           
 |    /                                                          /            
 |   /                                                          /             
 |  /                                                          /              
 | /                                                          /               
 |/                                                          /                
 *----------------------------------------------------------*                 

Positions:
   0 C     12.912384   10.694242    8.885035
   1 C     12.977519   14.637456    8.904719
   2 C      9.098070   13.285899    9.371677
   3 C     13.098307    9.384072    8.827631
   4 C     12.900703   13.314487    8.901791
   5 C     13.141852   12.006583    8.898762
   6 C      8.615691   12.125038    8.762376
   7 C      9.619485   11.980752    9.582620
   8 C     13.692008    8.173537    8.856514
   9 C      9.073139   10.819475    8.991288
  10 C     13.372516   15.929943    8.921727
  11 C     11.899343    4.958222    8.729178
  12 C     12.015400    6.343796    8.790969

Unit cell:
           periodic     x           y           z      points  spacing
  1. axis:    no    24.000000    0.000000    0.000000   120     0.2000
  2. axis:    no     0.000000   24.000000    0.000000   120     0.2000
  3. axis:    no     0.000000    0.000000   18.000000    88     0.2045

  Lengths:  24.000000  24.000000  18.000000
  Angles:   90.000000  90.000000  90.000000

Effective grid spacing dv^(1/3) = 0.2015

                     log10-error:    total        iterations:
           time      wfs    density  energy       fermi  poisson
iter:   1  10:09:11          +inf   -83.537038    3      6      
iter:   2  10:09:12         -0.86   -83.021860    4      3      
iter:   3  10:09:12         -0.89   -81.997662    35     3      
iter:   4  10:09:13         -1.02   -81.689796    32     2      
iter:   5  10:09:13         -1.09   -81.207959    32     3      
iter:   6  10:09:14         -1.37   -81.119593    3      3      
iter:   7  10:09:14         -1.53   -81.071834    3      3      
iter:   8  10:09:15         -1.74   -81.055890    3      3      
iter:   9  10:09:15         -2.04   -81.058903    3      2      
iter:  10  10:09:16         -2.11   -81.057441    3      2      
iter:  11  10:09:16         -2.19   -81.057001    3      2      
iter:  12  10:09:17         -2.30   -81.056526    3      2      
iter:  13  10:09:17         -2.45   -81.054075    3      2      
iter:  14  10:09:17         -2.56   -81.053113    3      2      
iter:  15  10:09:18         -2.74   -81.052937    3      2      
iter:  16  10:09:18         -2.99   -81.060237    3      1      
iter:  17  10:09:19         -3.32   -81.051701    2      1      
iter:  18  10:09:19         -3.48   -81.050731    2      1      
iter:  19  10:09:20         -3.67   -81.052714    2      1      
iter:  20  10:09:20         -3.73   -81.050974    2      1      
iter:  21  10:09:20         -3.87   -81.051668    2      1      
iter:  22  10:09:21         -3.96   -81.052047    2      1      
iter:  23  10:09:21         -4.05   -81.051791    2      1      

Converged after 23 iterations.

Dipole moment: (-0.015173, 0.420582, -0.009383) |e|*Ang

Energy contributions relative to reference atoms: (reference = -13359.165501)

Kinetic:        +51.667983
Potential:      -57.664321
External:        +0.000000
XC:             -76.300188
Entropy (-ST):   -0.346468
Local:           +1.417969
--------------------------
Free energy:    -81.225025
Extrapolated:   -81.051791

Fermi level: -6.60521

 Band  Eigenvalues  Occupancy
    0    -27.87819    2.00000
    1    -22.19496    2.00000
    2    -21.23408    2.00000
    3    -20.33368    2.00000
    4    -19.90864    2.00000
    5    -18.50494    2.00000
    6    -18.10618    2.00000
    7    -16.96146    2.00000
    8    -15.51270    2.00000
    9    -13.59616    2.00000
   10    -12.87347    2.00000
   11    -10.94319    2.00000
   12    -10.83765    2.00000
   13    -10.62726    2.00000
   14    -10.33961    2.00000
   15    -10.22706    2.00000
   16     -9.52172    2.00000
   17     -9.37653    2.00000
   18     -8.38432    2.00000
   19     -7.90993    2.00000
   20     -7.74434    1.99998
   21     -7.71670    1.99997
   22     -7.55710    1.99985
   23     -7.00272    1.96314
   24     -6.80246    1.75575
   25     -6.73265    1.56298
   26     -6.53799    0.67599
   27     -6.22109    0.04203
   28     -5.72675    0.00031
   29     -5.32158    0.00001
   30     -3.11533    0.00000
   31     -3.03287    0.00000
   32     -2.87626    0.00000
   33     -1.19360    0.00000
   34     -1.13323    0.00000
   35     -0.98312    0.00000
   36     -0.94679    0.00000
   37     -0.44144    0.00000
   38      0.03597    0.00000
   39      0.71646    0.00000
   40      2.49821    0.00000
   41      2.88346    0.00000
   42      4.15170    0.00000
   43      4.84910    0.00000
   44      5.25163    0.00000
   45      5.65557    0.00000
   46      6.32059    0.00000
   47      6.55624    0.00000
   48      7.00565    0.00000
   49      7.25299    0.00000
   50      7.57034    0.00000
   51      7.64858    0.00000
   52      8.02267    0.00000
   53      8.40519    0.00000
   54      8.55390    0.00000
   55      8.70196    0.00000
   56      8.92394    0.00000
   57      8.96468    0.00000
   58      9.20577    0.00000
   59      9.62186    0.00000
   60      9.84113    0.00000
   61     10.15785    0.00000
   62     10.32870    0.00000
   63     10.38860    0.00000
   64     10.56579    0.00000
   65     10.61437    0.00000
   66     10.73623    0.00000
   67     10.98086    0.00000
   68     11.43258    0.00000
   69     11.82613    0.00000
   70     12.05434    0.00000
   71     12.55257    0.00000
   72     12.56755    0.00000
   73     12.63293    0.00000
   74     12.88914    0.00000
   75     12.95199    0.00000

Timing:                              incl.     excl.
-----------------------------------------------------------
Basic WFS set positions:             0.000     0.000   0.0% |
Basis functions set positions:       0.013     0.013   0.1% |
LCAO WFS Initialize:                 0.525     0.015   0.1% |
 Hamiltonian:                        0.511     0.000   0.0% |
  Atomic:                            0.000     0.000   0.0% |
   XC Correction:                    0.000     0.000   0.0% |
  Calculate atomic Hamiltonians:     0.000     0.000   0.0% |
  Communicate:                       0.042     0.042   0.4% |
  Hartree integrate/restrict:        0.007     0.007   0.1% |
  Initialize Hamiltonian:            0.002     0.002   0.0% |
  Poisson:                           0.296     0.296   2.7% ||
  XC 3D grid:                        0.161     0.161   1.4% ||
  vbar:                              0.002     0.002   0.0% |
SCF-cycle:                          10.189     0.013   0.1% |
 Density:                            1.721     0.000   0.0% |
  Atomic density matrices:           1.498     1.498  13.4% |----|
  Mix:                               0.205     0.205   1.8% ||
  Multipole moments:                 0.004     0.004   0.0% |
  Normalize:                         0.002     0.002   0.0% |
  Pseudo density:                    0.010     0.004   0.0% |
   Calculate density matrix:         0.006     0.006   0.1% |
   Construct density:                0.000     0.000   0.0% |
   Symmetrize density:               0.000     0.000   0.0% |
 Hamiltonian:                        6.806     0.002   0.0% |
  Atomic:                            0.005     0.004   0.0% |
   XC Correction:                    0.000     0.000   0.0% |
  Calculate atomic Hamiltonians:     0.006     0.006   0.1% |
  Communicate:                       0.931     0.931   8.3% |--|
  Hartree integrate/restrict:        0.153     0.153   1.4% ||
  Poisson:                           2.111     2.111  18.9% |-------|
  XC 3D grid:                        3.558     3.558  31.8% |------------|
  vbar:                              0.041     0.041   0.4% |
 LCAO eigensolver:                   1.650     0.002   0.0% |
  Calculate projections:             0.000     0.000   0.0% |
  DenseAtomicCorrection:             0.000     0.000   0.0% |
  Distribute overlap matrix:         1.484     1.484  13.3% |----|
  Orbital Layouts:                   0.162     0.162   1.4% ||
  Potential matrix:                  0.002     0.002   0.0% |
Set symmetry:                        0.092     0.092   0.8% |
TCI: Calculate S, T, P:              0.003     0.003   0.0% |
TCI: Evaluate splines:               0.062     0.062   0.6% |
Other:                               0.298     0.298   2.7% ||
-----------------------------------------------------------
Total:                                        11.184 100.0%

Memory usage: 212.62 MiB
Date: Fri Mar 23 10:09:21 2018
