
  ___ ___ ___ _ _ _  
 |   |   |_  | | | | 
 | | | | | . | | | | 
 |__ |  _|___|_____|  1.3.1b1
 |___|_|             

User:   mkb@s91n12.grendel.cscaa.dk
Date:   Fri Mar 23 10:42:42 2018
Arch:   x86_64
Pid:    423519
Python: 2.7.13
gpaw:   /home/mkb/gpaw/gpaw
_gpaw:  /home/mkb/gpaw/build/bin.linux-x86_64-2.7/gpaw-python
ase:    /home/mkb/ase/ase (version 3.15.1b1)
numpy:  /comm/swstack/core/python/2.7.13/lib/python2.7/site-packages/numpy (version 1.13.3)
scipy:  /comm/swstack/core/python/2.7.13/lib/python2.7/site-packages/scipy (version 0.19.1)
units:  Angstrom and eV
cores:  36
Extra parameters: {'blacs': True}

Input parameters:
  basis: dzp
  gpts: [120 120  88]
  kpts: [1 1 1]
  maxiter: 99
  mixer: {backend: pulay,
          beta: 0.05,
          method: separate,
          nmaxold: 5,
          weight: 75}
  mode: lcao
  nbands: -50
  occupations: {name: fermi-dirac,
                width: 0.1}
  poissonsolver: {eps: 1e-07,
                  name: fd,
                  nn: 3,
                  relax: GS}
  xc: PBE

System changes: positions, numbers, cell, pbc, initial_charges, initial_magmoms 

Initialize ...

C-setup:
  name: Carbon
  id: 4aa54d4b901d75f77cc0ea3eec22967b
  Z: 6
  valence: 4
  core: 2
  charge: 0.0
  file: /home/esb/DFT/gpaw-setups-0.8.7929/C.PBE.gz
  cutoffs: 0.64(comp), 1.14(filt), 1.14(core), lmax=2
  valence states:
                energy  radius
    2s(2.00)   -13.751   0.635
    2p(2.00)    -5.284   0.635
    *s          13.461   0.635
    *p          21.927   0.635
    *d           0.000   0.635

  LCAO basis set for C:
    Name: dzp
    File: /home/esb/DFT/gpaw-setups-0.8.7929/C.dzp.basis.gz
    Number of radial functions: 5
    Number of spherical harmonics: 13
      l=0, rc=5.5469 Bohr: 2s-sz confined orbital
      l=1, rc=6.6719 Bohr: 2p-sz confined orbital
      l=0, rc=3.0312 Bohr: 2s-dz split-valence wave
      l=1, rc=3.7500 Bohr: 2p-dz split-valence wave
      l=2, rc=6.6719 Bohr: d-type Gaussian polarization

Reference energy: -13359.165501

Spin-paired calculation

Occupation numbers:
  Fermi-Dirac: width=0.1000 eV

Convergence criteria:
  Maximum total energy change: 0.0005 eV / electron
  Maximum integral of absolute density change: 0.0001 electrons
  Maximum integral of absolute eigenstate change: 4e-08 eV^2
  Maximum number of iterations: 99

Symmetries present (total): 1

  ( 1  0  0)
  ( 0  1  0)
  ( 0  0  1)

1 k-point (Gamma)
1 k-point in the irreducible part of the Brillouin zone
       k-points in crystal coordinates                weights
   0:     0.00000000    0.00000000    0.00000000          1/1

Wave functions: LCAO
  Diagonalizer: Serial LAPACK
  Atomic Correction: dense with blas
  Datatype: float
  Eigensolver: None 

LCAO using direct dense diagonalizer 

Densities:
  Coarse grid: 120*120*88 grid
  Fine grid: 240*240*176 grid
  Total Charge: 0.000000 

Density mixing:
  Method: separate
  Backend: pulay
  Linear mixing parameter: 0.05
  Mixing with 5 old densities
  Damping of long wave oscillations: 75 

Hamiltonian:
  XC and Coulomb potentials evaluated on a 240*240*176 grid
  Using the PBE Exchange-Correlation functional
  Interpolation: tri-quintic (5. degree polynomial)
  Poisson solver: Gauss-Seidel solver with 5 multi-grid levels
    Coarsest grid: 15 x 15 x 11 points
    Stencil: 6*3+1=19 point O(h^6) finite-difference Laplacian
    Max iterations: 1000
    Tolerance: 1.000000e-07 

Memory estimate:
  Process memory now: 221.78 MiB
  Calculator: 19.91 MiB
    Density: 9.40 MiB
      Arrays: 6.69 MiB
      Localized functions: 0.21 MiB
      Mixer: 2.50 MiB
    Hamiltonian: 9.40 MiB
      Arrays: 4.38 MiB
      XC: 0.00 MiB
      Poisson: 5.01 MiB
      vbar: 0.02 MiB
    Wavefunctions: 1.11 MiB
      C [qnM]: 0.10 MiB
      S, T [2 x qmm]: 0.44 MiB
      P [aqMi]: 0.00 MiB
      TCI: 0.00 MiB
      BasisFunctions: 0.57 MiB
      Eigensolver: 0.00 MiB

Total number of cores used: 36
Domain decomposition: 3 x 4 x 3

Number of atoms: 13
Number of atomic orbitals: 169
Number of bands in calculation: 76
Bands to converge: occupied states only
Number of valence electrons: 52

... initialized

Initializing position-dependent things.

Density initialized from atomic densities
                .----------------------------------------------------------.  
               /|                                                          |  
              / |                                                          |  
             /  |                                                          |  
            /   |                                                          |  
           /    |                                                          |  
          /     |                                                          |  
         /      |                                                          |  
        /       |                                                          |  
       /        |                                                          |  
      /         |                                                          |  
     /          |                                                          |  
    /           |                                                          |  
   /            |                                                          |  
  /             |                                                          |  
 *              |                                                          |  
 |              |                 C                                        |  
 |              |                    C  C                                  |  
 |              |               C       C                                  |  
 |              |                      C                                   |  
 |              |                     C                                    |  
 |              |                     C                                    |  
 |              .--------------------C-------------------------------------.  
 |             /                    C                                     /   
 |            /                     C                                    /    
 |           /                                                          /     
 |          /                                                          /      
 |         /                                                          /       
 |        /                                                          /        
 |       /                                                          /         
 |      /                                                          /          
 |     /                                                          /           
 |    /                                                          /            
 |   /                                                          /             
 |  /                                                          /              
 | /                                                          /               
 |/                                                          /                
 *----------------------------------------------------------*                 

Positions:
   0 C     12.728117    9.709400    8.885035
   1 C     12.455604   13.588957    8.904719
   2 C      9.229615   12.844788    9.371677
   3 C     12.966157    7.125862    8.827631
   4 C     12.682383   12.302748    8.901791
   5 C     12.766048   11.009194    8.898762
   6 C      8.940160   14.035775    8.762376
   7 C      9.569249   14.852580    9.582620
   8 C     12.797126    8.413227    8.856514
   9 C     10.759326   14.793151    8.991288
  10 C     12.108191   14.890892    8.921727
  11 C     13.062721    4.469124    8.729178
  12 C     12.940904    5.825767    8.790969

Unit cell:
           periodic     x           y           z      points  spacing
  1. axis:    no    24.000000    0.000000    0.000000   120     0.2000
  2. axis:    no     0.000000   24.000000    0.000000   120     0.2000
  3. axis:    no     0.000000    0.000000   18.000000    88     0.2045

  Lengths:  24.000000  24.000000  18.000000
  Angles:   90.000000  90.000000  90.000000

Effective grid spacing dv^(1/3) = 0.2015

                     log10-error:    total        iterations:
           time      wfs    density  energy       fermi  poisson
iter:   1  10:42:43          +inf   -92.352308    3      6      
iter:   2  10:42:44         -0.88   -91.825045    3      3      
iter:   3  10:42:44         -0.91   -91.509741    3      3      
iter:   4  10:42:45         -0.95   -90.302431    33     4      
iter:   5  10:42:45         -1.35   -90.153075    3      3      
iter:   6  10:42:46         -1.54   -90.122535    3      3      
iter:   7  10:42:46         -1.70   -90.092816    3      2      
iter:   8  10:42:47         -1.82   -90.078935    3      3      
iter:   9  10:42:47         -2.01   -90.071475    4      2      
iter:  10  10:42:48         -2.31   -90.068158    3      2      
iter:  11  10:42:48         -2.47   -90.067029    3      2      
iter:  12  10:42:49         -2.75   -90.072313    3      1      
iter:  13  10:42:49         -2.86   -90.070783    3      1      
iter:  14  10:42:50         -3.06   -90.060570    2      1      
iter:  15  10:42:50         -3.12   -90.057662    2      1      
iter:  16  10:42:51         -3.24   -90.059103    2      1      
iter:  17  10:42:51         -3.41   -90.058602    2      1      
iter:  18  10:42:52         -3.49   -90.060093    2      1      
iter:  19  10:42:52         -3.54   -90.061626    2      1      
iter:  20  10:42:52         -3.64   -90.062216    2      1      
iter:  21  10:42:53         -3.70   -90.063971    2      1      
iter:  22  10:42:53         -3.88   -90.062392    2      1      
iter:  23  10:42:54         -4.09   -90.062505    2      1      

Converged after 23 iterations.

Dipole moment: (-0.028207, 1.100874, -0.105497) |e|*Ang

Energy contributions relative to reference atoms: (reference = -13359.165501)

Kinetic:        +64.056260
Potential:      -68.876375
External:        +0.000000
XC:             -86.637968
Entropy (-ST):   -0.276482
Local:           +1.533819
--------------------------
Free energy:    -90.200746
Extrapolated:   -90.062505

Fermi level: -5.79828

 Band  Eigenvalues  Occupancy
    0    -23.86934    2.00000
    1    -22.11905    2.00000
    2    -21.55108    2.00000
    3    -20.82054    2.00000
    4    -19.82682    2.00000
    5    -18.72924    2.00000
    6    -17.94241    2.00000
    7    -17.22879    2.00000
    8    -16.02782    2.00000
    9    -14.96920    2.00000
   10    -14.40800    2.00000
   11    -12.90180    2.00000
   12    -11.34784    2.00000
   13    -10.99660    2.00000
   14    -10.47473    2.00000
   15    -10.30263    2.00000
   16     -9.80774    2.00000
   17     -9.46792    2.00000
   18     -8.92132    2.00000
   19     -8.66351    2.00000
   20     -7.88566    2.00000
   21     -7.49984    2.00000
   22     -7.18942    2.00000
   23     -6.98449    1.99999
   24     -6.15149    1.94318
   25     -5.88277    1.39899
   26     -5.72643    0.65544
   27     -5.12603    0.00240
   28     -3.95539    0.00000
   29     -3.78499    0.00000
   30     -3.29907    0.00000
   31     -2.47307    0.00000
   32     -1.47259    0.00000
   33     -1.16118    0.00000
   34     -0.87549    0.00000
   35     -0.15994    0.00000
   36      1.38447    0.00000
   37      1.93321    0.00000
   38      2.95053    0.00000
   39      3.67999    0.00000
   40      4.23093    0.00000
   41      4.34543    0.00000
   42      5.42615    0.00000
   43      6.28423    0.00000
   44      6.36768    0.00000
   45      6.92772    0.00000
   46      7.26139    0.00000
   47      7.33805    0.00000
   48      7.69508    0.00000
   49      7.82900    0.00000
   50      8.01369    0.00000
   51      8.26146    0.00000
   52      8.47600    0.00000
   53      8.62771    0.00000
   54      8.79907    0.00000
   55      8.97277    0.00000
   56      9.26279    0.00000
   57      9.29373    0.00000
   58      9.55292    0.00000
   59      9.67768    0.00000
   60      9.95025    0.00000
   61     10.39035    0.00000
   62     10.48105    0.00000
   63     10.59282    0.00000
   64     10.73998    0.00000
   65     11.02936    0.00000
   66     11.74021    0.00000
   67     11.79556    0.00000
   68     12.14521    0.00000
   69     12.76333    0.00000
   70     12.84982    0.00000
   71     13.14351    0.00000
   72     13.33856    0.00000
   73     13.59546    0.00000
   74     14.28186    0.00000
   75     14.96812    0.00000

Timing:                              incl.     excl.
-----------------------------------------------------------
Basic WFS set positions:             0.000     0.000   0.0% |
Basis functions set positions:       0.013     0.013   0.1% |
LCAO WFS Initialize:                 0.524     0.013   0.1% |
 Hamiltonian:                        0.512     0.000   0.0% |
  Atomic:                            0.000     0.000   0.0% |
   XC Correction:                    0.000     0.000   0.0% |
  Calculate atomic Hamiltonians:     0.000     0.000   0.0% |
  Communicate:                       0.042     0.042   0.4% |
  Hartree integrate/restrict:        0.007     0.007   0.1% |
  Initialize Hamiltonian:            0.002     0.002   0.0% |
  Poisson:                           0.297     0.297   2.5% ||
  XC 3D grid:                        0.161     0.161   1.4% ||
  vbar:                              0.002     0.002   0.0% |
SCF-cycle:                          10.700     0.011   0.1% |
 Density:                            2.102     0.000   0.0% |
  Atomic density matrices:           1.878     1.878  16.1% |-----|
  Mix:                               0.207     0.207   1.8% ||
  Multipole moments:                 0.004     0.004   0.0% |
  Normalize:                         0.002     0.002   0.0% |
  Pseudo density:                    0.010     0.003   0.0% |
   Calculate density matrix:         0.006     0.006   0.1% |
   Construct density:                0.000     0.000   0.0% |
   Symmetrize density:               0.000     0.000   0.0% |
 Hamiltonian:                        6.658     0.002   0.0% |
  Atomic:                            0.005     0.004   0.0% |
   XC Correction:                    0.000     0.000   0.0% |
  Calculate atomic Hamiltonians:     0.006     0.006   0.1% |
  Communicate:                       0.928     0.928   7.9% |--|
  Hartree integrate/restrict:        0.151     0.151   1.3% ||
  Poisson:                           1.971     1.971  16.8% |------|
  XC 3D grid:                        3.553     3.553  30.4% |-----------|
  vbar:                              0.041     0.041   0.4% |
 LCAO eigensolver:                   1.930     0.002   0.0% |
  Calculate projections:             0.000     0.000   0.0% |
  DenseAtomicCorrection:             0.000     0.000   0.0% |
  Distribute overlap matrix:         1.783     1.783  15.2% |-----|
  Orbital Layouts:                   0.143     0.143   1.2% |
  Potential matrix:                  0.002     0.002   0.0% |
Set symmetry:                        0.093     0.093   0.8% |
TCI: Calculate S, T, P:              0.003     0.003   0.0% |
TCI: Evaluate splines:               0.062     0.062   0.5% |
Other:                               0.301     0.301   2.6% ||
-----------------------------------------------------------
Total:                                        11.698 100.0%

Memory usage: 221.78 MiB
Date: Fri Mar 23 10:42:54 2018
