
  ___ ___ ___ _ _ _  
 |   |   |_  | | | | 
 | | | | | . | | | | 
 |__ |  _|___|_____|  1.3.1b1
 |___|_|             

User:   mkb@s91n12.grendel.cscaa.dk
Date:   Fri Mar 23 10:01:04 2018
Arch:   x86_64
Pid:    423519
Python: 2.7.13
gpaw:   /home/mkb/gpaw/gpaw
_gpaw:  /home/mkb/gpaw/build/bin.linux-x86_64-2.7/gpaw-python
ase:    /home/mkb/ase/ase (version 3.15.1b1)
numpy:  /comm/swstack/core/python/2.7.13/lib/python2.7/site-packages/numpy (version 1.13.3)
scipy:  /comm/swstack/core/python/2.7.13/lib/python2.7/site-packages/scipy (version 0.19.1)
units:  Angstrom and eV
cores:  36
Extra parameters: {'blacs': True}

Input parameters:
  basis: dzp
  gpts: [120 120  88]
  kpts: [1 1 1]
  maxiter: 99
  mixer: {backend: pulay,
          beta: 0.05,
          method: separate,
          nmaxold: 5,
          weight: 75}
  mode: lcao
  nbands: -50
  occupations: {name: fermi-dirac,
                width: 0.1}
  poissonsolver: {eps: 1e-07,
                  name: fd,
                  nn: 3,
                  relax: GS}
  xc: PBE

System changes: positions, numbers, cell, pbc, initial_charges, initial_magmoms 

Initialize ...

C-setup:
  name: Carbon
  id: 4aa54d4b901d75f77cc0ea3eec22967b
  Z: 6
  valence: 4
  core: 2
  charge: 0.0
  file: /home/esb/DFT/gpaw-setups-0.8.7929/C.PBE.gz
  cutoffs: 0.64(comp), 1.14(filt), 1.14(core), lmax=2
  valence states:
                energy  radius
    2s(2.00)   -13.751   0.635
    2p(2.00)    -5.284   0.635
    *s          13.461   0.635
    *p          21.927   0.635
    *d           0.000   0.635

  LCAO basis set for C:
    Name: dzp
    File: /home/esb/DFT/gpaw-setups-0.8.7929/C.dzp.basis.gz
    Number of radial functions: 5
    Number of spherical harmonics: 13
      l=0, rc=5.5469 Bohr: 2s-sz confined orbital
      l=1, rc=6.6719 Bohr: 2p-sz confined orbital
      l=0, rc=3.0312 Bohr: 2s-dz split-valence wave
      l=1, rc=3.7500 Bohr: 2p-dz split-valence wave
      l=2, rc=6.6719 Bohr: d-type Gaussian polarization

Reference energy: -13359.165501

Spin-paired calculation

Occupation numbers:
  Fermi-Dirac: width=0.1000 eV

Convergence criteria:
  Maximum total energy change: 0.0005 eV / electron
  Maximum integral of absolute density change: 0.0001 electrons
  Maximum integral of absolute eigenstate change: 4e-08 eV^2
  Maximum number of iterations: 99

Symmetries present (total): 1

  ( 1  0  0)
  ( 0  1  0)
  ( 0  0  1)

1 k-point (Gamma)
1 k-point in the irreducible part of the Brillouin zone
       k-points in crystal coordinates                weights
   0:     0.00000000    0.00000000    0.00000000          1/1

Wave functions: LCAO
  Diagonalizer: Serial LAPACK
  Atomic Correction: dense with blas
  Datatype: float
  Eigensolver: None 

LCAO using direct dense diagonalizer 

Densities:
  Coarse grid: 120*120*88 grid
  Fine grid: 240*240*176 grid
  Total Charge: 0.000000 

Density mixing:
  Method: separate
  Backend: pulay
  Linear mixing parameter: 0.05
  Mixing with 5 old densities
  Damping of long wave oscillations: 75 

Hamiltonian:
  XC and Coulomb potentials evaluated on a 240*240*176 grid
  Using the PBE Exchange-Correlation functional
  Interpolation: tri-quintic (5. degree polynomial)
  Poisson solver: Gauss-Seidel solver with 5 multi-grid levels
    Coarsest grid: 15 x 15 x 11 points
    Stencil: 6*3+1=19 point O(h^6) finite-difference Laplacian
    Max iterations: 1000
    Tolerance: 1.000000e-07 

Memory estimate:
  Process memory now: 205.46 MiB
  Calculator: 19.91 MiB
    Density: 9.40 MiB
      Arrays: 6.69 MiB
      Localized functions: 0.21 MiB
      Mixer: 2.50 MiB
    Hamiltonian: 9.40 MiB
      Arrays: 4.38 MiB
      XC: 0.00 MiB
      Poisson: 5.01 MiB
      vbar: 0.02 MiB
    Wavefunctions: 1.11 MiB
      C [qnM]: 0.10 MiB
      S, T [2 x qmm]: 0.44 MiB
      P [aqMi]: 0.00 MiB
      TCI: 0.00 MiB
      BasisFunctions: 0.57 MiB
      Eigensolver: 0.00 MiB

Total number of cores used: 36
Domain decomposition: 3 x 4 x 3

Number of atoms: 13
Number of atomic orbitals: 169
Number of bands in calculation: 76
Bands to converge: occupied states only
Number of valence electrons: 52

... initialized

Initializing position-dependent things.

Density initialized from atomic densities
                .----------------------------------------------------------.  
               /|                                                          |  
              / |                                                          |  
             /  |                                                          |  
            /   |                                                          |  
           /    |                                                          |  
          /     |                                                          |  
         /      |                                                          |  
        /       |                                                          |  
       /        |                                                          |  
      /         |                                                          |  
     /          |                                                          |  
    /           |                                                          |  
   /            |                                                          |  
  /             |                                                          |  
 *              |                                                          |  
 |              |                           C                              |  
 |              |              C           C                               |  
 |              |              C          C                                |  
 |              |            C          C                                  |  
 |              |                     CC                                   |  
 |              |                   C                                      |  
 |              .------------------C---------------------------------------.  
 |             /                  C                                       /   
 |            /                                                          /    
 |           /                                                          /     
 |          /                                                          /      
 |         /                                                          /       
 |        /                                                          /        
 |       /                                                          /         
 |      /                                                          /          
 |     /                                                          /           
 |    /                                                          /            
 |   /                                                          /             
 |  /                                                          /              
 | /                                                          /               
 |/                                                          /                
 *----------------------------------------------------------*                 

Positions:
   0 C     12.789830   10.541910    8.885035
   1 C     13.381253   14.583538    8.904719
   2 C      8.855852   13.324207    9.371677
   3 C     12.445538    7.838467    8.827631
   4 C     13.187494   13.234385    8.901791
   5 C     12.979954   11.888477    8.898762
   6 C      8.310487   12.179488    8.762376
   7 C      9.312193   11.941195    9.582620
   8 C     12.640579    9.185342    8.856514
   9 C      8.550354   10.814602    8.991288
  10 C     13.625425   15.944643    8.921727
  11 C     12.141657    5.109021    8.729178
  12 C     12.284952    6.484104    8.790969

Unit cell:
           periodic     x           y           z      points  spacing
  1. axis:    no    24.000000    0.000000    0.000000   120     0.2000
  2. axis:    no     0.000000   24.000000    0.000000   120     0.2000
  3. axis:    no     0.000000    0.000000   18.000000    88     0.2045

  Lengths:  24.000000  24.000000  18.000000
  Angles:   90.000000  90.000000  90.000000

Effective grid spacing dv^(1/3) = 0.2015

                     log10-error:    total        iterations:
           time      wfs    density  energy       fermi  poisson
iter:   1  10:01:05          +inf   -89.469467    1      6      
iter:   2  10:01:06         -0.86   -89.094736    2      3      
iter:   3  10:01:06         -0.89   -87.870001    5      4      
iter:   4  10:01:07         -1.18   -87.444926    3      3      
iter:   5  10:01:07         -1.39   -87.448740    4      3      
iter:   6  10:01:08         -1.54   -87.321749    3      3      
iter:   7  10:01:08         -1.96   -87.324076    2      2      
iter:   8  10:01:09         -2.05   -87.323739    3      2      
iter:   9  10:01:09         -2.35   -87.314793    3      2      
iter:  10  10:01:10         -2.59   -87.312707    2      2      
iter:  11  10:01:10         -2.73   -87.313341    2      2      
iter:  12  10:01:10         -2.97   -87.315281    2      1      
iter:  13  10:01:11         -3.04   -87.309361    2      1      
iter:  14  10:01:11         -3.13   -87.306316    2      1      
iter:  15  10:01:12         -3.42   -87.315230    2      1      
iter:  16  10:01:12         -3.51   -87.310047    2      1      
iter:  17  10:01:13         -3.59   -87.309992    2      1      
iter:  18  10:01:13         -3.64   -87.308958    2      1      
iter:  19  10:01:13         -3.83   -87.309557    2      1      
iter:  20  10:01:14         -3.91   -87.310331    2      1      
iter:  21  10:01:14         -3.99   -87.309818    2      1      
iter:  22  10:01:15         -4.10   -87.310520    2      1      

Converged after 22 iterations.

Dipole moment: (0.015027, -0.000227, -0.064634) |e|*Ang

Energy contributions relative to reference atoms: (reference = -13359.165501)

Kinetic:        +30.381851
Potential:      -42.044593
External:        +0.000000
XC:             -77.083615
Entropy (-ST):   -0.041277
Local:           +1.456476
--------------------------
Free energy:    -87.331159
Extrapolated:   -87.310520

Fermi level: -6.46195

 Band  Eigenvalues  Occupancy
    0    -27.09773    2.00000
    1    -21.63966    2.00000
    2    -21.02532    2.00000
    3    -20.18892    2.00000
    4    -19.84610    2.00000
    5    -19.17228    2.00000
    6    -18.16681    2.00000
    7    -16.94803    2.00000
    8    -15.75004    2.00000
    9    -14.88368    2.00000
   10    -13.27883    2.00000
   11    -12.37277    2.00000
   12    -10.54409    2.00000
   13    -10.44747    2.00000
   14    -10.38701    2.00000
   15     -9.86499    2.00000
   16     -9.60843    2.00000
   17     -9.59859    2.00000
   18     -8.44121    2.00000
   19     -8.43197    2.00000
   20     -7.58606    1.99997
   21     -7.58013    1.99997
   22     -7.55355    1.99996
   23     -7.03270    1.99338
   24     -7.00343    1.99114
   25     -6.91173    1.97798
   26     -6.06531    0.03718
   27     -5.54790    0.00021
   28     -5.54059    0.00020
   29     -3.50156    0.00000
   30     -3.49049    0.00000
   31     -2.76927    0.00000
   32     -1.25918    0.00000
   33     -1.24979    0.00000
   34     -1.23429    0.00000
   35     -1.08754    0.00000
   36      0.47125    0.00000
   37      0.98313    0.00000
   38      0.99319    0.00000
   39      2.19611    0.00000
   40      2.66649    0.00000
   41      2.67991    0.00000
   42      3.50336    0.00000
   43      4.19551    0.00000
   44      4.95905    0.00000
   45      5.49693    0.00000
   46      5.88613    0.00000
   47      6.38768    0.00000
   48      6.90846    0.00000
   49      7.38439    0.00000
   50      7.89806    0.00000
   51      7.96611    0.00000
   52      8.48573    0.00000
   53      8.69424    0.00000
   54      8.88370    0.00000
   55      8.92540    0.00000
   56      9.01076    0.00000
   57      9.05192    0.00000
   58      9.15517    0.00000
   59      9.31478    0.00000
   60      9.65496    0.00000
   61      9.92116    0.00000
   62     10.25500    0.00000
   63     10.35756    0.00000
   64     10.52853    0.00000
   65     10.63055    0.00000
   66     10.95608    0.00000
   67     11.58277    0.00000
   68     11.94729    0.00000
   69     12.25304    0.00000
   70     12.42325    0.00000
   71     12.45699    0.00000
   72     12.83258    0.00000
   73     12.90683    0.00000
   74     13.19247    0.00000
   75     13.35586    0.00000

Timing:                              incl.     excl.
-----------------------------------------------------------
Basic WFS set positions:             0.000     0.000   0.0% |
Basis functions set positions:       0.013     0.013   0.1% |
LCAO WFS Initialize:                 0.522     0.013   0.1% |
 Hamiltonian:                        0.509     0.000   0.0% |
  Atomic:                            0.000     0.000   0.0% |
   XC Correction:                    0.000     0.000   0.0% |
  Calculate atomic Hamiltonians:     0.000     0.000   0.0% |
  Communicate:                       0.043     0.043   0.4% |
  Hartree integrate/restrict:        0.007     0.007   0.1% |
  Initialize Hamiltonian:            0.002     0.002   0.0% |
  Poisson:                           0.294     0.294   2.8% ||
  XC 3D grid:                        0.161     0.161   1.5% ||
  vbar:                              0.002     0.002   0.0% |
SCF-cycle:                           9.602     0.009   0.1% |
 Density:                            1.670     0.000   0.0% |
  Atomic density matrices:           1.457     1.457  13.8% |-----|
  Mix:                               0.197     0.197   1.9% ||
  Multipole moments:                 0.004     0.004   0.0% |
  Normalize:                         0.002     0.002   0.0% |
  Pseudo density:                    0.009     0.003   0.0% |
   Calculate density matrix:         0.005     0.005   0.0% |
   Construct density:                0.000     0.000   0.0% |
   Symmetrize density:               0.000     0.000   0.0% |
 Hamiltonian:                        6.335     0.002   0.0% |
  Atomic:                            0.004     0.004   0.0% |
   XC Correction:                    0.000     0.000   0.0% |
  Calculate atomic Hamiltonians:     0.006     0.006   0.1% |
  Communicate:                       0.891     0.891   8.4% |--|
  Hartree integrate/restrict:        0.145     0.145   1.4% ||
  Poisson:                           1.852     1.852  17.5% |------|
  XC 3D grid:                        3.396     3.396  32.1% |------------|
  vbar:                              0.039     0.039   0.4% |
 LCAO eigensolver:                   1.588     0.002   0.0% |
  Calculate projections:             0.000     0.000   0.0% |
  DenseAtomicCorrection:             0.000     0.000   0.0% |
  Distribute overlap matrix:         1.446     1.446  13.6% |----|
  Orbital Layouts:                   0.138     0.138   1.3% ||
  Potential matrix:                  0.001     0.001   0.0% |
Set symmetry:                        0.091     0.091   0.9% |
TCI: Calculate S, T, P:              0.003     0.003   0.0% |
TCI: Evaluate splines:               0.061     0.061   0.6% |
Other:                               0.298     0.298   2.8% ||
-----------------------------------------------------------
Total:                                        10.590 100.0%

Memory usage: 205.56 MiB
Date: Fri Mar 23 10:01:15 2018
