
  ___ ___ ___ _ _ _  
 |   |   |_  | | | | 
 | | | | | . | | | | 
 |__ |  _|___|_____|  1.3.1b1
 |___|_|             

User:   mkb@s91n12.grendel.cscaa.dk
Date:   Fri Mar 23 10:01:17 2018
Arch:   x86_64
Pid:    423519
Python: 2.7.13
gpaw:   /home/mkb/gpaw/gpaw
_gpaw:  /home/mkb/gpaw/build/bin.linux-x86_64-2.7/gpaw-python
ase:    /home/mkb/ase/ase (version 3.15.1b1)
numpy:  /comm/swstack/core/python/2.7.13/lib/python2.7/site-packages/numpy (version 1.13.3)
scipy:  /comm/swstack/core/python/2.7.13/lib/python2.7/site-packages/scipy (version 0.19.1)
units:  Angstrom and eV
cores:  36
Extra parameters: {'blacs': True}

Input parameters:
  basis: dzp
  gpts: [120 120  88]
  kpts: [1 1 1]
  maxiter: 99
  mixer: {backend: pulay,
          beta: 0.05,
          method: separate,
          nmaxold: 5,
          weight: 75}
  mode: lcao
  nbands: -50
  occupations: {name: fermi-dirac,
                width: 0.1}
  poissonsolver: {eps: 1e-07,
                  name: fd,
                  nn: 3,
                  relax: GS}
  xc: PBE

System changes: positions, numbers, cell, pbc, initial_charges, initial_magmoms 

Initialize ...

C-setup:
  name: Carbon
  id: 4aa54d4b901d75f77cc0ea3eec22967b
  Z: 6
  valence: 4
  core: 2
  charge: 0.0
  file: /home/esb/DFT/gpaw-setups-0.8.7929/C.PBE.gz
  cutoffs: 0.64(comp), 1.14(filt), 1.14(core), lmax=2
  valence states:
                energy  radius
    2s(2.00)   -13.751   0.635
    2p(2.00)    -5.284   0.635
    *s          13.461   0.635
    *p          21.927   0.635
    *d           0.000   0.635

  LCAO basis set for C:
    Name: dzp
    File: /home/esb/DFT/gpaw-setups-0.8.7929/C.dzp.basis.gz
    Number of radial functions: 5
    Number of spherical harmonics: 13
      l=0, rc=5.5469 Bohr: 2s-sz confined orbital
      l=1, rc=6.6719 Bohr: 2p-sz confined orbital
      l=0, rc=3.0312 Bohr: 2s-dz split-valence wave
      l=1, rc=3.7500 Bohr: 2p-dz split-valence wave
      l=2, rc=6.6719 Bohr: d-type Gaussian polarization

Reference energy: -13359.165501

Spin-paired calculation

Occupation numbers:
  Fermi-Dirac: width=0.1000 eV

Convergence criteria:
  Maximum total energy change: 0.0005 eV / electron
  Maximum integral of absolute density change: 0.0001 electrons
  Maximum integral of absolute eigenstate change: 4e-08 eV^2
  Maximum number of iterations: 99

Symmetries present (total): 1

  ( 1  0  0)
  ( 0  1  0)
  ( 0  0  1)

1 k-point (Gamma)
1 k-point in the irreducible part of the Brillouin zone
       k-points in crystal coordinates                weights
   0:     0.00000000    0.00000000    0.00000000          1/1

Wave functions: LCAO
  Diagonalizer: Serial LAPACK
  Atomic Correction: dense with blas
  Datatype: float
  Eigensolver: None 

LCAO using direct dense diagonalizer 

Densities:
  Coarse grid: 120*120*88 grid
  Fine grid: 240*240*176 grid
  Total Charge: 0.000000 

Density mixing:
  Method: separate
  Backend: pulay
  Linear mixing parameter: 0.05
  Mixing with 5 old densities
  Damping of long wave oscillations: 75 

Hamiltonian:
  XC and Coulomb potentials evaluated on a 240*240*176 grid
  Using the PBE Exchange-Correlation functional
  Interpolation: tri-quintic (5. degree polynomial)
  Poisson solver: Gauss-Seidel solver with 5 multi-grid levels
    Coarsest grid: 15 x 15 x 11 points
    Stencil: 6*3+1=19 point O(h^6) finite-difference Laplacian
    Max iterations: 1000
    Tolerance: 1.000000e-07 

Memory estimate:
  Process memory now: 205.68 MiB
  Calculator: 19.91 MiB
    Density: 9.40 MiB
      Arrays: 6.69 MiB
      Localized functions: 0.21 MiB
      Mixer: 2.50 MiB
    Hamiltonian: 9.40 MiB
      Arrays: 4.38 MiB
      XC: 0.00 MiB
      Poisson: 5.01 MiB
      vbar: 0.02 MiB
    Wavefunctions: 1.11 MiB
      C [qnM]: 0.10 MiB
      S, T [2 x qmm]: 0.44 MiB
      P [aqMi]: 0.00 MiB
      TCI: 0.00 MiB
      BasisFunctions: 0.57 MiB
      Eigensolver: 0.00 MiB

Total number of cores used: 36
Domain decomposition: 3 x 4 x 3

Number of atoms: 13
Number of atomic orbitals: 169
Number of bands in calculation: 76
Bands to converge: occupied states only
Number of valence electrons: 52

... initialized

Initializing position-dependent things.

Density initialized from atomic densities
                .----------------------------------------------------------.  
               /|                                                          |  
              / |                                                          |  
             /  |                                                          |  
            /   |                                                          |  
           /    |                                                          |  
          /     |                                                          |  
         /      |                                                          |  
        /       |                                                          |  
       /        |                                                          |  
      /         |                                                          |  
     /          |                                                          |  
    /           |                                                          |  
   /            |                                                          |  
  /             |                                                          |  
 *              |                                                          |  
 |              |                             C                            |  
 |              |                             C                            |  
 |              |           C CC           C                               |  
 |              |             C        C C                                 |  
 |              |                     C                                    |  
 |              |                    C                                     |  
 |              .------------------C---------------------------------------.  
 |             /                   C                                      /   
 |            /                                                          /    
 |           /                                                          /     
 |          /                                                          /      
 |         /                                                          /       
 |        /                                                          /        
 |       /                                                          /         
 |      /                                                          /          
 |     /                                                          /           
 |    /                                                          /            
 |   /                                                          /             
 |  /                                                          /              
 | /                                                          /               
 |/                                                          /                
 *----------------------------------------------------------*                 

Positions:
   0 C     12.781007   10.742119    8.885035
   1 C     14.616888   14.858610    8.904719
   2 C      7.883265   12.754659    9.371677
   3 C     12.492405    8.085637    8.827631
   4 C     13.825572   12.475554    8.901791
   5 C     13.128550   11.854470    8.898762
   6 C      8.375829   12.710988    8.762376
   7 C      8.972810   12.393376    9.582620
   8 C     12.736066    9.262436    8.856514
   9 C      8.783449   11.468513    8.991288
  10 C     14.229282   15.563958    8.921727
  11 C     12.256870    5.817236    8.729178
  12 C     12.240072    6.654191    8.790969

Unit cell:
           periodic     x           y           z      points  spacing
  1. axis:    no    24.000000    0.000000    0.000000   120     0.2000
  2. axis:    no     0.000000   24.000000    0.000000   120     0.2000
  3. axis:    no     0.000000    0.000000   18.000000    88     0.2045

  Lengths:  24.000000  24.000000  18.000000
  Angles:   90.000000  90.000000  90.000000

Effective grid spacing dv^(1/3) = 0.2015

                     log10-error:    total        iterations:
           time      wfs    density  energy       fermi  poisson
iter:   1  10:01:18          +inf    -9.450569    1      6      
iter:   2  10:01:19         -0.62    -3.349373    4      3      
iter:   3  10:01:19         -0.65     3.506557    26     4      
iter:   4  10:01:20         -0.66     6.978527    3      3      
iter:   5  10:01:20         -0.69    10.627490    35     3      
iter:   6  10:01:21         -0.77    13.921542    35     3      
iter:   7  10:01:21         -0.92    14.662153    36     3      
iter:   8  10:01:22         -0.99    15.382841    5      3      
iter:   9  10:01:23         -1.04    16.188143    34     3      
iter:  10  10:01:23         -1.18    16.433461    3      2      
iter:  11  10:01:24         -1.26    15.991199    3      3      
iter:  12  10:01:24         -1.14    16.637910    2      2      
iter:  13  10:01:25         -1.39    16.581443    3      3      
iter:  14  10:01:25         -1.39    16.572748    2      3      
iter:  15  10:01:26         -1.45    16.715012    3      3      
iter:  16  10:01:26         -1.72    16.739370    3      2      
iter:  17  10:01:26         -1.83    16.744670    3      2      
iter:  18  10:01:27         -1.91    16.746065    3      2      
iter:  19  10:01:27         -1.94    16.757174    3      2      
iter:  20  10:01:28         -2.05    16.773014    3      2      
iter:  21  10:01:28         -2.24    16.775927    3      2      
iter:  22  10:01:29         -2.24    16.782342    3      2      
iter:  23  10:01:29         -2.72    16.786084    2      2      
iter:  24  10:01:30         -2.74    16.787292    2      2      
iter:  25  10:01:30         -2.89    16.784258    2      1      
iter:  26  10:01:31         -2.92    16.780749    2      1      
iter:  27  10:01:31         -2.97    16.782879    2      1      
iter:  28  10:01:31         -3.10    16.783378    2      1      
iter:  29  10:01:32         -3.17    16.783889    2      1      
iter:  30  10:01:32         -3.31    16.787894    2      1      
iter:  31  10:01:33         -3.36    16.786696    2      1      
iter:  32  10:01:33         -3.46    16.787740    2      1      
iter:  33  10:01:34         -3.53    16.789722    2      1      
iter:  34  10:01:34         -3.69    16.788515    2      1      
iter:  35  10:01:34         -3.75    16.789355    2      1      
iter:  36  10:01:35         -3.96    16.787914    2      1      
iter:  37  10:01:35         -4.00    16.787713    2      1      
iter:  38  10:01:36         -4.10    16.787616    2      1      

Converged after 38 iterations.

Dipole moment: (-0.846431, 0.208609, -0.148006) |e|*Ang

Energy contributions relative to reference atoms: (reference = -13359.165501)

Kinetic:       +506.196912
Potential:     -343.426016
External:        +0.000000
XC:            -147.909019
Entropy (-ST):   -0.632321
Local:           +2.241900
--------------------------
Free energy:    +16.471456
Extrapolated:   +16.787616

Fermi level: -5.88930

 Band  Eigenvalues  Occupancy
    0    -35.37708    2.00000
    1    -23.57076    2.00000
    2    -22.33702    2.00000
    3    -21.41705    2.00000
    4    -20.14148    2.00000
    5    -19.50746    2.00000
    6    -19.29409    2.00000
    7    -18.86528    2.00000
    8    -16.95054    2.00000
    9    -16.43519    2.00000
   10    -14.65530    2.00000
   11    -14.12969    2.00000
   12    -12.18534    2.00000
   13    -12.17661    2.00000
   14    -10.50730    2.00000
   15    -10.50186    2.00000
   16    -10.45413    2.00000
   17     -9.74385    2.00000
   18     -9.51224    2.00000
   19     -8.83071    2.00000
   20     -8.80303    2.00000
   21     -8.47695    2.00000
   22     -8.26177    2.00000
   23     -6.04906    1.66336
   24     -6.01386    1.55307
   25     -5.97189    1.39099
   26     -5.81104    0.62750
   27     -5.79133    0.54589
   28     -5.67815    0.21596
   29     -5.24657    0.00323
   30     -3.36675    0.00000
   31     -1.18463    0.00000
   32     -1.07744    0.00000
   33     -0.83751    0.00000
   34      1.26172    0.00000
   35      2.68481    0.00000
   36      3.89931    0.00000
   37      4.28522    0.00000
   38      4.60281    0.00000
   39      4.95649    0.00000
   40      5.54169    0.00000
   41      5.57789    0.00000
   42      5.67543    0.00000
   43      5.99532    0.00000
   44      6.23256    0.00000
   45      6.37890    0.00000
   46      6.81697    0.00000
   47      7.29840    0.00000
   48      7.76349    0.00000
   49      7.86475    0.00000
   50      8.13538    0.00000
   51      8.39795    0.00000
   52      8.60472    0.00000
   53      8.96837    0.00000
   54      9.15024    0.00000
   55      9.32366    0.00000
   56      9.36919    0.00000
   57      9.53995    0.00000
   58     10.01413    0.00000
   59     10.05006    0.00000
   60     10.27778    0.00000
   61     10.53234    0.00000
   62     10.61962    0.00000
   63     10.96669    0.00000
   64     11.07814    0.00000
   65     11.30432    0.00000
   66     12.06105    0.00000
   67     12.58660    0.00000
   68     12.84749    0.00000
   69     13.60355    0.00000
   70     14.41424    0.00000
   71     14.52251    0.00000
   72     15.08628    0.00000
   73     15.42176    0.00000
   74     15.80476    0.00000
   75     16.15245    0.00000

Timing:                              incl.     excl.
-----------------------------------------------------------
Basic WFS set positions:             0.000     0.000   0.0% |
Basis functions set positions:       0.013     0.013   0.1% |
LCAO WFS Initialize:                 0.522     0.012   0.1% |
 Hamiltonian:                        0.509     0.000   0.0% |
  Atomic:                            0.000     0.000   0.0% |
   XC Correction:                    0.000     0.000   0.0% |
  Calculate atomic Hamiltonians:     0.000     0.000   0.0% |
  Communicate:                       0.042     0.042   0.2% |
  Hartree integrate/restrict:        0.007     0.007   0.0% |
  Initialize Hamiltonian:            0.002     0.002   0.0% |
  Poisson:                           0.295     0.295   1.6% ||
  XC 3D grid:                        0.161     0.161   0.9% |
  vbar:                              0.002     0.002   0.0% |
SCF-cycle:                          17.443     0.021   0.1% |
 Density:                            3.043     0.001   0.0% |
  Atomic density matrices:           2.666     2.666  14.5% |-----|
  Mix:                               0.349     0.349   1.9% ||
  Multipole moments:                 0.007     0.007   0.0% |
  Normalize:                         0.004     0.004   0.0% |
  Pseudo density:                    0.016     0.006   0.0% |
   Calculate density matrix:         0.009     0.009   0.0% |
   Construct density:                0.000     0.000   0.0% |
   Symmetrize density:               0.000     0.000   0.0% |
 Hamiltonian:                       11.578     0.004   0.0% |
  Atomic:                            0.008     0.008   0.0% |
   XC Correction:                    0.000     0.000   0.0% |
  Calculate atomic Hamiltonians:     0.010     0.010   0.1% |
  Communicate:                       1.579     1.579   8.6% |--|
  Hartree integrate/restrict:        0.255     0.255   1.4% ||
  Poisson:                           3.669     3.669  19.9% |-------|
  XC 3D grid:                        5.983     5.983  32.5% |------------|
  vbar:                              0.070     0.070   0.4% |
 LCAO eigensolver:                   2.801     0.003   0.0% |
  Calculate projections:             0.000     0.000   0.0% |
  DenseAtomicCorrection:             0.001     0.001   0.0% |
  Distribute overlap matrix:         2.557     2.557  13.9% |-----|
  Orbital Layouts:                   0.238     0.238   1.3% ||
  Potential matrix:                  0.002     0.002   0.0% |
Set symmetry:                        0.092     0.092   0.5% |
TCI: Calculate S, T, P:              0.003     0.003   0.0% |
TCI: Evaluate splines:               0.061     0.061   0.3% |
Other:                               0.295     0.295   1.6% ||
-----------------------------------------------------------
Total:                                        18.431 100.0%

Memory usage: 207.50 MiB
Date: Fri Mar 23 10:01:36 2018
