
  ___ ___ ___ _ _ _  
 |   |   |_  | | | | 
 | | | | | . | | | | 
 |__ |  _|___|_____|  1.3.1b1
 |___|_|             

User:   mkb@s91n12.grendel.cscaa.dk
Date:   Fri Mar 23 09:54:10 2018
Arch:   x86_64
Pid:    423519
Python: 2.7.13
gpaw:   /home/mkb/gpaw/gpaw
_gpaw:  /home/mkb/gpaw/build/bin.linux-x86_64-2.7/gpaw-python
ase:    /home/mkb/ase/ase (version 3.15.1b1)
numpy:  /comm/swstack/core/python/2.7.13/lib/python2.7/site-packages/numpy (version 1.13.3)
scipy:  /comm/swstack/core/python/2.7.13/lib/python2.7/site-packages/scipy (version 0.19.1)
units:  Angstrom and eV
cores:  36
Extra parameters: {'blacs': True}

Input parameters:
  basis: dzp
  gpts: [120 120  88]
  kpts: [1 1 1]
  maxiter: 99
  mixer: {backend: pulay,
          beta: 0.05,
          method: separate,
          nmaxold: 5,
          weight: 75}
  mode: lcao
  nbands: -50
  occupations: {name: fermi-dirac,
                width: 0.1}
  poissonsolver: {eps: 1e-07,
                  name: fd,
                  nn: 3,
                  relax: GS}
  xc: PBE

System changes: positions, numbers, cell, pbc, initial_charges, initial_magmoms 

Initialize ...

C-setup:
  name: Carbon
  id: 4aa54d4b901d75f77cc0ea3eec22967b
  Z: 6
  valence: 4
  core: 2
  charge: 0.0
  file: /home/esb/DFT/gpaw-setups-0.8.7929/C.PBE.gz
  cutoffs: 0.64(comp), 1.14(filt), 1.14(core), lmax=2
  valence states:
                energy  radius
    2s(2.00)   -13.751   0.635
    2p(2.00)    -5.284   0.635
    *s          13.461   0.635
    *p          21.927   0.635
    *d           0.000   0.635

  LCAO basis set for C:
    Name: dzp
    File: /home/esb/DFT/gpaw-setups-0.8.7929/C.dzp.basis.gz
    Number of radial functions: 5
    Number of spherical harmonics: 13
      l=0, rc=5.5469 Bohr: 2s-sz confined orbital
      l=1, rc=6.6719 Bohr: 2p-sz confined orbital
      l=0, rc=3.0312 Bohr: 2s-dz split-valence wave
      l=1, rc=3.7500 Bohr: 2p-dz split-valence wave
      l=2, rc=6.6719 Bohr: d-type Gaussian polarization

Reference energy: -13359.165501

Spin-paired calculation

Occupation numbers:
  Fermi-Dirac: width=0.1000 eV

Convergence criteria:
  Maximum total energy change: 0.0005 eV / electron
  Maximum integral of absolute density change: 0.0001 electrons
  Maximum integral of absolute eigenstate change: 4e-08 eV^2
  Maximum number of iterations: 99

Symmetries present (total): 1

  ( 1  0  0)
  ( 0  1  0)
  ( 0  0  1)

1 k-point (Gamma)
1 k-point in the irreducible part of the Brillouin zone
       k-points in crystal coordinates                weights
   0:     0.00000000    0.00000000    0.00000000          1/1

Wave functions: LCAO
  Diagonalizer: Serial LAPACK
  Atomic Correction: dense with blas
  Datatype: float
  Eigensolver: None 

LCAO using direct dense diagonalizer 

Densities:
  Coarse grid: 120*120*88 grid
  Fine grid: 240*240*176 grid
  Total Charge: 0.000000 

Density mixing:
  Method: separate
  Backend: pulay
  Linear mixing parameter: 0.05
  Mixing with 5 old densities
  Damping of long wave oscillations: 75 

Hamiltonian:
  XC and Coulomb potentials evaluated on a 240*240*176 grid
  Using the PBE Exchange-Correlation functional
  Interpolation: tri-quintic (5. degree polynomial)
  Poisson solver: Gauss-Seidel solver with 5 multi-grid levels
    Coarsest grid: 15 x 15 x 11 points
    Stencil: 6*3+1=19 point O(h^6) finite-difference Laplacian
    Max iterations: 1000
    Tolerance: 1.000000e-07 

Memory estimate:
  Process memory now: 180.29 MiB
  Calculator: 19.91 MiB
    Density: 9.40 MiB
      Arrays: 6.69 MiB
      Localized functions: 0.21 MiB
      Mixer: 2.50 MiB
    Hamiltonian: 9.40 MiB
      Arrays: 4.38 MiB
      XC: 0.00 MiB
      Poisson: 5.01 MiB
      vbar: 0.02 MiB
    Wavefunctions: 1.11 MiB
      C [qnM]: 0.10 MiB
      S, T [2 x qmm]: 0.44 MiB
      P [aqMi]: 0.00 MiB
      TCI: 0.00 MiB
      BasisFunctions: 0.57 MiB
      Eigensolver: 0.00 MiB

Total number of cores used: 36
Domain decomposition: 3 x 4 x 3

Number of atoms: 13
Number of atomic orbitals: 169
Number of bands in calculation: 76
Bands to converge: occupied states only
Number of valence electrons: 52

... initialized

Initializing position-dependent things.

Density initialized from atomic densities
                .----------------------------------------------------------.  
               /|                                                          |  
              / |                                                          |  
             /  |                                                          |  
            /   |                                                          |  
           /    |                                                          |  
          /     |                                                          |  
         /      |                                                          |  
        /       |                                                          |  
       /        |                                                          |  
      /         |                                                          |  
     /          |                                                          |  
    /           |                                                          |  
   /            |                                                          |  
  /             |                                                          |  
 *              |                                                          |  
 |              |                             C                            |  
 |              |                           C                              |  
 |              |            C  C       C C                                |  
 |              |               C     C                                    |  
 |              |            C        C                                    |  
 |              |                   C                                      |  
 |              .------------------C---------------------------------------.  
 |             /                  C                                       /   
 |            /                                                          /    
 |           /                                                          /     
 |          /                                                          /      
 |         /                                                          /       
 |        /                                                          /        
 |       /                                                          /         
 |      /                                                          /          
 |     /                                                          /           
 |    /                                                          /            
 |   /                                                          /             
 |  /                                                          /              
 | /                                                          /               
 |/                                                          /                
 *----------------------------------------------------------*                 

Positions:
   0 C     12.188388   10.966926    8.918666
   1 C     13.653006   14.438767    8.931338
   2 C      8.071063   12.857970    9.321024
   3 C     12.259680    7.779228    8.845248
   4 C     13.483504   13.137250    8.944971
   5 C     12.767883   12.263558    8.948868
   6 C      8.550758   10.747069    8.763577
   7 C      9.472601   12.452450    9.567400
   8 C     12.823978    9.310125    8.886148
   9 C      9.744642   11.117005    8.991183
  10 C     14.474730   15.470030    8.902224
  11 C     12.153875    5.717215    8.739120
  12 C     12.099342    6.811934    8.801665

Unit cell:
           periodic     x           y           z      points  spacing
  1. axis:    no    24.000000    0.000000    0.000000   120     0.2000
  2. axis:    no     0.000000   24.000000    0.000000   120     0.2000
  3. axis:    no     0.000000    0.000000   18.000000    88     0.2045

  Lengths:  24.000000  24.000000  18.000000
  Angles:   90.000000  90.000000  90.000000

Effective grid spacing dv^(1/3) = 0.2015

                     log10-error:    total        iterations:
           time      wfs    density  energy       fermi  poisson
iter:   1  09:54:11          +inf   -77.164091    2      6      
iter:   2  09:54:11         -0.77   -74.552900    33     3      
iter:   3  09:54:12         -0.85   -73.484201    4      3      
iter:   4  09:54:12         -0.89   -72.105245    4      3      
iter:   5  09:54:13         -0.96   -71.573164    4      3      
iter:   6  09:54:13         -1.04   -70.806557    35     3      
iter:   7  09:54:14         -1.34   -70.675644    4      3      
iter:   8  09:54:14         -1.52   -70.608909    4      3      
iter:   9  09:54:15         -1.64   -70.579429    3      2      
iter:  10  09:54:15         -1.79   -70.559457    4      3      
iter:  11  09:54:16         -2.00   -70.556156    3      2      
iter:  12  09:54:16         -2.12   -70.549432    3      2      
iter:  13  09:54:17         -2.32   -70.548347    3      2      
iter:  14  09:54:17         -2.45   -70.546676    3      2      
iter:  15  09:54:18         -2.62   -70.545706    3      2      
iter:  16  09:54:18         -2.81   -70.552264    3      1      
iter:  17  09:54:19         -2.94   -70.552592    3      1      
iter:  18  09:54:19         -3.13   -70.547758    2      1      
iter:  19  09:54:20         -3.43   -70.544387    2      1      
iter:  20  09:54:20         -3.52   -70.543152    2      1      
iter:  21  09:54:21         -3.65   -70.543871    2      1      
iter:  22  09:54:21         -3.76   -70.543753    2      1      
iter:  23  09:54:21         -3.82   -70.543394    2      1      
iter:  24  09:54:22         -3.91   -70.543808    2      1      
iter:  25  09:54:22         -4.06   -70.544104    2      1      

Converged after 25 iterations.

Dipole moment: (-0.113876, -0.246799, 0.103815) |e|*Ang

Energy contributions relative to reference atoms: (reference = -13359.165501)

Kinetic:       +116.505879
Potential:     -103.267464
External:        +0.000000
XC:             -85.131900
Entropy (-ST):   -0.361999
Local:           +1.530380
--------------------------
Free energy:    -70.725103
Extrapolated:   -70.544104

Fermi level: -6.50940

 Band  Eigenvalues  Occupancy
    0    -23.62839    2.00000
    1    -22.63896    2.00000
    2    -22.26264    2.00000
    3    -19.95990    2.00000
    4    -19.77853    2.00000
    5    -18.41628    2.00000
    6    -17.94870    2.00000
    7    -16.77064    2.00000
    8    -15.46531    2.00000
    9    -14.46251    2.00000
   10    -12.74243    2.00000
   11    -12.20473    2.00000
   12    -12.08408    2.00000
   13    -10.87896    2.00000
   14    -10.67442    2.00000
   15    -10.24906    2.00000
   16     -9.96883    2.00000
   17     -9.24723    2.00000
   18     -8.26839    2.00000
   19     -8.02240    2.00000
   20     -7.94118    2.00000
   21     -7.43737    1.99981
   22     -7.17791    1.99750
   23     -6.81981    1.91413
   24     -6.74035    1.81933
   25     -6.58352    1.35454
   26     -6.49227    0.91459
   27     -5.45432    0.00005
   28     -5.43114    0.00004
   29     -4.53656    0.00000
   30     -3.99267    0.00000
   31     -3.74980    0.00000
   32     -3.22201    0.00000
   33     -2.93145    0.00000
   34     -2.26381    0.00000
   35     -1.22233    0.00000
   36     -1.20917    0.00000
   37     -0.02852    0.00000
   38      0.96494    0.00000
   39      2.75442    0.00000
   40      3.24076    0.00000
   41      4.63148    0.00000
   42      4.73489    0.00000
   43      5.12457    0.00000
   44      5.34396    0.00000
   45      6.33685    0.00000
   46      7.04264    0.00000
   47      7.56823    0.00000
   48      7.90840    0.00000
   49      7.95349    0.00000
   50      8.03496    0.00000
   51      8.29058    0.00000
   52      8.50342    0.00000
   53      8.80849    0.00000
   54      8.92967    0.00000
   55      8.94462    0.00000
   56      9.22777    0.00000
   57      9.28811    0.00000
   58      9.70589    0.00000
   59      9.93366    0.00000
   60     10.05000    0.00000
   61     10.16699    0.00000
   62     10.35286    0.00000
   63     10.48355    0.00000
   64     10.66786    0.00000
   65     10.79503    0.00000
   66     10.93986    0.00000
   67     11.05459    0.00000
   68     11.50382    0.00000
   69     12.00064    0.00000
   70     12.18802    0.00000
   71     12.22560    0.00000
   72     12.56119    0.00000
   73     12.76657    0.00000
   74     13.24488    0.00000
   75     13.53365    0.00000


Forces in eV/Ang:
  0 C     1.58149   -3.29978   -0.13323
  1 C     2.51548    2.03863   -0.03693
  2 C     3.73920   -1.32461    0.67706
  3 C    10.55580   63.59458    2.64677
  4 C     7.99183   13.43891   -0.00861
  5 C   -11.31368  -19.20176   -0.03336
  6 C    -4.83638   -0.84595   -0.77605
  7 C    -4.10417   -0.58552   -1.53080
  8 C    -3.53118   -0.49009   -0.01584
  9 C     6.61812    3.00031    1.67391
 10 C    -0.47752   -0.01110    0.01764
 11 C     1.07598  -28.05683   -1.58460
 12 C    -9.83061  -28.31760   -0.90139

System changes: positions 

Initializing position-dependent things.

Density initialized from wave functions
                .----------------------------------------------------------.  
               /|                                                          |  
              / |                                                          |  
             /  |                                                          |  
            /   |                                                          |  
           /    |                                                          |  
          /     |                                                          |  
         /      |                                                          |  
        /       |                                                          |  
       /        |                                                          |  
      /         |                                                          |  
     /          |                                                          |  
    /           |                                                          |  
   /            |                                                          |  
  /             |                                                          |  
 *              |                                                          |  
 |              |                             C                            |  
 |              |                           C                              |  
 |              |            C  C       C C                                |  
 |              |               C     C                                    |  
 |              |            C        C                                    |  
 |              |                   C                                      |  
 |              .------------------C---------------------------------------.  
 |             /                  C                                       /   
 |            /                                                          /    
 |           /                                                          /     
 |          /                                                          /      
 |         /                                                          /       
 |        /                                                          /        
 |       /                                                          /         
 |      /                                                          /          
 |     /                                                          /           
 |    /                                                          /            
 |   /                                                          /             
 |  /                                                          /              
 | /                                                          /               
 |/                                                          /                
 *----------------------------------------------------------*                 

Positions:
   0 C     12.189369   10.964880    8.918583
   1 C     13.654566   14.440031    8.931315
   2 C      8.073382   12.857149    9.321444
   3 C     12.266224    7.818655    8.846889
   4 C     13.488459   13.145582    8.944966
   5 C     12.760869   12.251653    8.948847
   6 C      8.547759   10.746544    8.763096
   7 C      9.470056   12.452087    9.566451
   8 C     12.821789    9.309821    8.886138
   9 C      9.748745   11.118865    8.992220
  10 C     14.474434   15.470023    8.902235
  11 C     12.154543    5.699821    8.738138
  12 C     12.093247    6.794378    8.801106

Unit cell:
           periodic     x           y           z      points  spacing
  1. axis:    no    24.000000    0.000000    0.000000   120     0.2000
  2. axis:    no     0.000000   24.000000    0.000000   120     0.2000
  3. axis:    no     0.000000    0.000000   18.000000    88     0.2045

  Lengths:  24.000000  24.000000  18.000000
  Angles:   90.000000  90.000000  90.000000

Effective grid spacing dv^(1/3) = 0.2015

                     log10-error:    total        iterations:
           time      wfs    density  energy       fermi  poisson
iter:   1  09:54:23          +inf   -74.321780    4      5      
iter:   2  09:54:24         -1.70   -74.223064    3      2      
iter:   3  09:54:24         -1.89   -74.159443    4      2      
iter:   4  09:54:25         -2.17   -74.145943    3      2      
iter:   5  09:54:25         -2.26   -74.140825    3      2      
iter:   6  09:54:26         -2.35   -74.132496    3      2      
iter:   7  09:54:26         -2.46   -74.133761    2      1      
iter:   8  09:54:27         -2.51   -74.132951    2      2      
iter:   9  09:54:27         -2.82   -74.131878    3      2      
iter:  10  09:54:28         -2.95   -74.132073    2      1      
iter:  11  09:54:28         -3.08   -74.131677    2      1      
iter:  12  09:54:28         -3.22   -74.132239    2      1      
iter:  13  09:54:29         -3.38   -74.132337    2      1      
iter:  14  09:54:29         -3.60   -74.131100    2      1      
iter:  15  09:54:30         -3.68   -74.129889    2      1      
iter:  16  09:54:30         -3.92   -74.130917    2      1      
iter:  17  09:54:31         -4.05   -74.131119    2      1      

Converged after 17 iterations.

Dipole moment: (-0.126917, -0.092983, 0.109935) |e|*Ang

Energy contributions relative to reference atoms: (reference = -13359.165501)

Kinetic:       +100.784279
Potential:      -92.957931
External:        +0.000000
XC:             -83.203473
Entropy (-ST):   -0.366695
Local:           +1.429354
--------------------------
Free energy:    -74.314467
Extrapolated:   -74.131119

Fermi level: -6.56938

 Band  Eigenvalues  Occupancy
    0    -23.28566    2.00000
    1    -22.69218    2.00000
    2    -22.26493    2.00000
    3    -19.96326    2.00000
    4    -19.71491    2.00000
    5    -18.47590    2.00000
    6    -18.01166    2.00000
    7    -16.91518    2.00000
    8    -15.57026    2.00000
    9    -14.53187    2.00000
   10    -12.77552    2.00000
   11    -11.69620    2.00000
   12    -11.65060    2.00000
   13    -10.91536    2.00000
   14    -10.68543    2.00000
   15    -10.28687    2.00000
   16    -10.02369    2.00000
   17     -9.29720    2.00000
   18     -8.34352    2.00000
   19     -8.11778    2.00000
   20     -8.02009    2.00000
   21     -7.49054    1.99980
   22     -7.02709    1.97964
   23     -6.88366    1.91725
   24     -6.80985    1.83437
   25     -6.64401    1.35673
   26     -6.55177    0.91214
   27     -5.46972    0.00003
   28     -5.44695    0.00003
   29     -4.48848    0.00000
   30     -4.03415    0.00000
   31     -3.62003    0.00000
   32     -3.27808    0.00000
   33     -2.94755    0.00000
   34     -2.28502    0.00000
   35     -1.29003    0.00000
   36     -1.08957    0.00000
   37     -0.11712    0.00000
   38      1.00432    0.00000
   39      2.68838    0.00000
   40      3.07500    0.00000
   41      4.42287    0.00000
   42      4.65489    0.00000
   43      5.17860    0.00000
   44      5.35015    0.00000
   45      6.29230    0.00000
   46      6.98831    0.00000
   47      7.54178    0.00000
   48      7.88339    0.00000
   49      7.92443    0.00000
   50      8.10953    0.00000
   51      8.35170    0.00000
   52      8.45711    0.00000
   53      8.79609    0.00000
   54      8.92446    0.00000
   55      8.96240    0.00000
   56      9.20986    0.00000
   57      9.26821    0.00000
   58      9.66798    0.00000
   59      9.88533    0.00000
   60      9.98974    0.00000
   61     10.10870    0.00000
   62     10.35923    0.00000
   63     10.49206    0.00000
   64     10.59129    0.00000
   65     10.72630    0.00000
   66     10.90852    0.00000
   67     11.02799    0.00000
   68     11.56716    0.00000
   69     11.92785    0.00000
   70     12.13503    0.00000
   71     12.23629    0.00000
   72     12.56618    0.00000
   73     12.75896    0.00000
   74     13.22410    0.00000
   75     13.47096    0.00000


Forces in eV/Ang:
  0 C     1.61984   -3.39325   -0.13183
  1 C     2.37458    2.11369   -0.03134
  2 C     3.63829   -1.29349    0.66053
  3 C     7.86472   46.00795    1.83582
  4 C     5.82267   10.44507   -0.00191
  5 C    -9.15083  -16.32688   -0.04459
  6 C    -4.34285   -0.67847   -0.67354
  7 C    -4.00734   -0.62463   -1.51323
  8 C    -3.73180   -0.65031   -0.01858
  9 C     6.14041    2.82244    1.57191
 10 C    -0.32675    0.17873    0.01193
 11 C     1.17794  -27.41855   -1.57966
 12 C    -7.15057  -11.23694   -0.11694

System changes: positions 

Initializing position-dependent things.

Density initialized from wave functions
                .----------------------------------------------------------.  
               /|                                                          |  
              / |                                                          |  
             /  |                                                          |  
            /   |                                                          |  
           /    |                                                          |  
          /     |                                                          |  
         /      |                                                          |  
        /       |                                                          |  
       /        |                                                          |  
      /         |                                                          |  
     /          |                                                          |  
    /           |                                                          |  
   /            |                                                          |  
  /             |                                                          |  
 *              |                                                          |  
 |              |                             C                            |  
 |              |                           C                              |  
 |              |            C  C       C C                                |  
 |              |               C     C                                    |  
 |              |            C        C                                    |  
 |              |                   C                                      |  
 |              .------------------C---------------------------------------.  
 |             /                  C                                       /   
 |            /                                                          /    
 |           /                                                          /     
 |          /                                                          /      
 |         /                                                          /       
 |        /                                                          /        
 |       /                                                          /         
 |      /                                                          /          
 |     /                                                          /           
 |    /                                                          /            
 |   /                                                          /             
 |  /                                                          /              
 | /                                                          /               
 |/                                                          /                
 *----------------------------------------------------------*                 

Positions:
   0 C     12.191908   10.959530    8.918388
   1 C     13.657813   14.443404    8.931281
   2 C      8.078634   12.855270    9.322402
   3 C     12.271626    7.845818    8.847710
   4 C     13.492032   13.154153    8.944979
   5 C     12.752253   12.233912    8.948752
   6 C      8.542388   10.745923    8.762326
   7 C      9.464236   12.451049    9.564207
   8 C     12.815669    9.308453    8.886103
   9 C      9.756870   11.122700    8.994349
  10 C     14.474303   15.470750    8.902239
  11 C     12.156567    5.659942    8.735763
  12 C     12.088897    6.818517    8.802817

Unit cell:
           periodic     x           y           z      points  spacing
  1. axis:    no    24.000000    0.000000    0.000000   120     0.2000
  2. axis:    no     0.000000   24.000000    0.000000   120     0.2000
  3. axis:    no     0.000000    0.000000   18.000000    88     0.2045

  Lengths:  24.000000  24.000000  18.000000
  Angles:   90.000000  90.000000  90.000000

Effective grid spacing dv^(1/3) = 0.2015

                     log10-error:    total        iterations:
           time      wfs    density  energy       fermi  poisson
iter:   1  09:54:32          +inf   -76.662895    4      5      
iter:   2  09:54:32         -1.69   -76.575682    4      2      
iter:   3  09:54:33         -1.93   -76.548116    3      2      
iter:   4  09:54:33         -2.12   -76.539557    3      2      
iter:   5  09:54:34         -2.25   -76.533847    3      2      
iter:   6  09:54:34         -2.40   -76.531520    3      2      
iter:   7  09:54:35         -2.69   -76.527732    3      2      
iter:   8  09:54:35         -2.84   -76.528041    3      2      
iter:   9  09:54:36         -2.99   -76.529062    2      1      
iter:  10  09:54:36         -3.08   -76.528058    2      1      
iter:  11  09:54:36         -3.29   -76.527621    2      1      
iter:  12  09:54:37         -3.42   -76.526964    2      1      
iter:  13  09:54:37         -3.62   -76.526354    2      1      
iter:  14  09:54:38         -3.76   -76.526446    2      1      
iter:  15  09:54:38         -3.84   -76.526159    2      1      
iter:  16  09:54:39         -3.97   -76.526693    2      1      
iter:  17  09:54:39         -4.04   -76.527095    2      1      

Converged after 17 iterations.

Dipole moment: (-0.118021, -0.127292, 0.108095) |e|*Ang

Energy contributions relative to reference atoms: (reference = -13359.165501)

Kinetic:        +87.967881
Potential:      -84.283981
External:        +0.000000
XC:             -81.490891
Entropy (-ST):   -0.357189
Local:           +1.458491
--------------------------
Free energy:    -76.705689
Extrapolated:   -76.527095

Fermi level: -6.54500

 Band  Eigenvalues  Occupancy
    0    -23.05316    2.00000
    1    -22.66428    2.00000
    2    -22.16381    2.00000
    3    -20.02009    2.00000
    4    -19.44503    2.00000
    5    -18.46241    2.00000
    6    -17.99729    2.00000
    7    -17.00332    2.00000
    8    -15.58693    2.00000
    9    -14.53281    2.00000
   10    -12.80415    2.00000
   11    -11.41308    2.00000
   12    -11.37718    2.00000
   13    -10.87461    2.00000
   14    -10.60708    2.00000
   15    -10.24134    2.00000
   16    -10.00091    2.00000
   17     -9.26291    2.00000
   18     -8.35838    2.00000
   19     -8.15553    2.00000
   20     -8.02205    2.00000
   21     -7.45994    1.99979
   22     -7.20653    1.99732
   23     -6.87790    1.93082
   24     -6.77269    1.81391
   25     -6.62054    1.36071
   26     -6.52440    0.89740
   27     -5.43210    0.00003
   28     -5.39944    0.00002
   29     -4.47129    0.00000
   30     -3.98836    0.00000
   31     -3.63563    0.00000
   32     -3.26165    0.00000
   33     -2.94635    0.00000
   34     -2.27192    0.00000
   35     -1.27780    0.00000
   36     -0.92627    0.00000
   37     -0.14919    0.00000
   38      1.10364    0.00000
   39      2.50874    0.00000
   40      2.96017    0.00000
   41      4.06047    0.00000
   42      4.72973    0.00000
   43      5.27128    0.00000
   44      5.50332    0.00000
   45      6.33557    0.00000
   46      7.00551    0.00000
   47      7.58961    0.00000
   48      7.90386    0.00000
   49      7.96069    0.00000
   50      8.14340    0.00000
   51      8.35970    0.00000
   52      8.45882    0.00000
   53      8.84591    0.00000
   54      8.95540    0.00000
   55      9.00013    0.00000
   56      9.20194    0.00000
   57      9.31454    0.00000
   58      9.67578    0.00000
   59      9.87245    0.00000
   60      9.99542    0.00000
   61     10.10689    0.00000
   62     10.22760    0.00000
   63     10.46498    0.00000
   64     10.56217    0.00000
   65     10.60853    0.00000
   66     10.90470    0.00000
   67     11.00738    0.00000
   68     11.57656    0.00000
   69     11.91838    0.00000
   70     12.16283    0.00000
   71     12.21879    0.00000
   72     12.54668    0.00000
   73     12.72089    0.00000
   74     13.21493    0.00000
   75     13.46031    0.00000


Forces in eV/Ang:
  0 C     1.57535   -3.69982   -0.13150
  1 C     2.12886    1.94791   -0.02133
  2 C     3.44019   -1.20117    0.63510
  3 C     7.87140   44.06307    1.72365
  4 C     3.56327    7.40536    0.00481
  5 C    -6.72267  -13.03139   -0.05498
  6 C    -3.41220   -0.40287   -0.49064
  7 C    -3.83698   -0.64624   -1.46915
  8 C    -3.72557   -0.30975   -0.00484
  9 C     5.21797    2.45251    1.36973
 10 C    -0.10695    0.46279    0.00354
 11 C     0.65136  -16.64647   -0.96107
 12 C    -6.66905  -20.35143   -0.63469

System changes: positions 

Initializing position-dependent things.

Density initialized from wave functions
                .----------------------------------------------------------.  
               /|                                                          |  
              / |                                                          |  
             /  |                                                          |  
            /   |                                                          |  
           /    |                                                          |  
          /     |                                                          |  
         /      |                                                          |  
        /       |                                                          |  
       /        |                                                          |  
      /         |                                                          |  
     /          |                                                          |  
    /           |                                                          |  
   /            |                                                          |  
  /             |                                                          |  
 *              |                                                          |  
 |              |                             C                            |  
 |              |                           C                              |  
 |              |            C  C       C C                                |  
 |              |               C     C                                    |  
 |              |            C        C                                    |  
 |              |                   C                                      |  
 |              .------------------C---------------------------------------.  
 |             /                  C                                       /   
 |            /                                                          /    
 |           /                                                          /     
 |          /                                                          /      
 |         /                                                          /       
 |        /                                                          /        
 |       /                                                          /         
 |      /                                                          /          
 |     /                                                          /           
 |    /                                                          /            
 |   /                                                          /             
 |  /                                                          /              
 | /                                                          /               
 |/                                                          /                
 *----------------------------------------------------------*                 

Positions:
   0 C     12.198399   10.942478    8.917866
   1 C     13.664331   14.451158    8.931280
   2 C      8.090983   12.851028    9.324746
   3 C     12.283378    7.884050    8.848124
   4 C     13.480397   13.148533    8.945078
   5 C     12.751747   12.216907    8.948400
   6 C      8.536279   10.746741    8.761897
   7 C      9.450126   12.448038    9.558566
   8 C     12.799063    9.307467    8.886123
   9 C      9.770464   11.129716    8.998267
  10 C     14.475955   15.475287    8.902174
  11 C     12.157696    5.643852    8.734580
  12 C     12.084059    6.824807    8.803894

Unit cell:
           periodic     x           y           z      points  spacing
  1. axis:    no    24.000000    0.000000    0.000000   120     0.2000
  2. axis:    no     0.000000   24.000000    0.000000   120     0.2000
  3. axis:    no     0.000000    0.000000   18.000000    88     0.2045

  Lengths:  24.000000  24.000000  18.000000
  Angles:   90.000000  90.000000  90.000000

Effective grid spacing dv^(1/3) = 0.2015

                     log10-error:    total        iterations:
           time      wfs    density  energy       fermi  poisson
iter:   1  09:54:40          +inf   -79.044104    3      5      
iter:   2  09:54:41         -1.56   -78.881865    4      2      
iter:   3  09:54:41         -1.82   -78.815681    4      2      
iter:   4  09:54:42         -2.09   -78.807403    3      2      
iter:   5  09:54:42         -2.25   -78.802038    3      2      
iter:   6  09:54:43         -2.35   -78.800296    3      2      
iter:   7  09:54:43         -2.55   -78.798329    3      2      
iter:   8  09:54:44         -2.67   -78.797801    3      2      
iter:   9  09:54:44         -2.94   -78.798635    2      1      
iter:  10  09:54:45         -3.02   -78.797314    3      2      
iter:  11  09:54:45         -3.27   -78.796989    2      1      
iter:  12  09:54:45         -3.39   -78.797183    2      1      
iter:  13  09:54:46         -3.52   -78.796643    2      1      
iter:  14  09:54:46         -3.60   -78.795691    2      1      
iter:  15  09:54:47         -3.84   -78.796927    2      1      
iter:  16  09:54:47         -3.98   -78.796974    2      1      
iter:  17  09:54:48         -4.00   -78.796650    2      1      
iter:  18  09:54:48         -4.11   -78.796811    2      1      

Converged after 18 iterations.

Dipole moment: (-0.133460, -0.097626, 0.111666) |e|*Ang

Energy contributions relative to reference atoms: (reference = -13359.165501)

Kinetic:        +77.381984
Potential:      -77.090485
External:        +0.000000
XC:             -80.371992
Entropy (-ST):   -0.357386
Local:           +1.462375
--------------------------
Free energy:    -78.975504
Extrapolated:   -78.796811

Fermi level: -6.59845

 Band  Eigenvalues  Occupancy
    0    -22.78958    2.00000
    1    -22.74959    2.00000
    2    -22.13291    2.00000
    3    -20.04343    2.00000
    4    -19.32194    2.00000
    5    -18.50833    2.00000
    6    -18.09793    2.00000
    7    -17.13434    2.00000
    8    -15.59995    2.00000
    9    -14.60818    2.00000
   10    -12.98751    2.00000
   11    -11.12468    2.00000
   12    -11.11539    2.00000
   13    -10.88908    2.00000
   14    -10.59342    2.00000
   15    -10.25850    2.00000
   16    -10.06587    2.00000
   17     -9.25570    2.00000
   18     -8.42673    2.00000
   19     -8.19868    2.00000
   20     -8.07599    2.00000
   21     -7.46103    1.99964
   22     -7.20668    1.99544
   23     -6.89970    1.90627
   24     -6.84807    1.84775
   25     -6.67549    1.36725
   26     -6.57506    0.88361
   27     -5.46537    0.00002
   28     -5.39020    0.00001
   29     -4.36769    0.00000
   30     -3.94012    0.00000
   31     -3.51780    0.00000
   32     -3.27809    0.00000
   33     -2.92272    0.00000
   34     -2.26530    0.00000
   35     -1.25704    0.00000
   36     -0.76795    0.00000
   37     -0.22542    0.00000
   38      1.31215    0.00000
   39      2.40301    0.00000
   40      2.87880    0.00000
   41      3.79027    0.00000
   42      4.78214    0.00000
   43      5.28182    0.00000
   44      5.87987    0.00000
   45      6.40780    0.00000
   46      6.92529    0.00000
   47      7.60615    0.00000
   48      7.85997    0.00000
   49      7.97121    0.00000
   50      8.20233    0.00000
   51      8.37044    0.00000
   52      8.47356    0.00000
   53      8.84287    0.00000
   54      8.93347    0.00000
   55      9.03678    0.00000
   56      9.16536    0.00000
   57      9.27080    0.00000
   58      9.66398    0.00000
   59      9.84544    0.00000
   60     10.00615    0.00000
   61     10.03283    0.00000
   62     10.12372    0.00000
   63     10.46972    0.00000
   64     10.47852    0.00000
   65     10.60626    0.00000
   66     10.87733    0.00000
   67     10.97305    0.00000
   68     11.62467    0.00000
   69     11.91586    0.00000
   70     12.18273    0.00000
   71     12.23504    0.00000
   72     12.55217    0.00000
   73     12.71954    0.00000
   74     13.22693    0.00000
   75     13.40384    0.00000


Forces in eV/Ang:
  0 C     1.56782   -3.98592   -0.12072
  1 C     1.71550    0.76520   -0.01001
  2 C     2.82383   -0.97649    0.52090
  3 C     6.64151   35.69442    1.31149
  4 C     3.51489    8.04927    0.00449
  5 C    -6.30813  -12.47506   -0.05431
  6 C    -2.26370   -0.04562   -0.25162
  7 C    -3.25449   -0.73721   -1.33582
  8 C    -3.75293    0.18379   -0.00974
  9 C     4.13854    1.91498    1.08858
 10 C     0.04175    0.62078    0.00245
 11 C     0.49350  -13.25385   -0.77472
 12 C    -5.40725  -15.66451   -0.41091

System changes: positions 

Initializing position-dependent things.

Density initialized from wave functions
                .----------------------------------------------------------.  
               /|                                                          |  
              / |                                                          |  
             /  |                                                          |  
            /   |                                                          |  
           /    |                                                          |  
          /     |                                                          |  
         /      |                                                          |  
        /       |                                                          |  
       /        |                                                          |  
      /         |                                                          |  
     /          |                                                          |  
    /           |                                                          |  
   /            |                                                          |  
  /             |                                                          |  
 *              |                                                          |  
 |              |                             C                            |  
 |              |                           C                              |  
 |              |            C  C       C C                                |  
 |              |               C     C                                    |  
 |              |            C        C                                    |  
 |              |                   C                                      |  
 |              .------------------C---------------------------------------.  
 |             /                  C                                       /   
 |            /                                                          /    
 |           /                                                          /     
 |          /                                                          /      
 |         /                                                          /       
 |        /                                                          /        
 |       /                                                          /         
 |      /                                                          /          
 |     /                                                          /           
 |    /                                                          /            
 |   /                                                          /             
 |  /                                                          /              
 | /                                                          /               
 |/                                                          /                
 *----------------------------------------------------------*                 

Positions:
   0 C     12.208783   10.911980    8.917147
   1 C     13.670695   14.448586    8.931381
   2 C      8.103984   12.846701    9.327216
   3 C     12.298580    7.919774    8.847277
   4 C     13.474276   13.166060    8.945194
   5 C     12.742518   12.177989    8.947901
   6 C      8.537268   10.751438    8.763495
   7 C      9.433887   12.442176    9.550933
   8 C     12.772536    9.312301    8.886080
   9 C      9.782469   11.135677    9.001843
  10 C     14.479508   15.483375    8.902094
  11 C     12.157974    5.639663    8.733948
  12 C     12.079731    6.835793    8.805963

Unit cell:
           periodic     x           y           z      points  spacing
  1. axis:    no    24.000000    0.000000    0.000000   120     0.2000
  2. axis:    no     0.000000   24.000000    0.000000   120     0.2000
  3. axis:    no     0.000000    0.000000   18.000000    88     0.2045

  Lengths:  24.000000  24.000000  18.000000
  Angles:   90.000000  90.000000  90.000000

Effective grid spacing dv^(1/3) = 0.2015

                     log10-error:    total        iterations:
           time      wfs    density  energy       fermi  poisson
iter:   1  09:54:49          +inf   -81.186864    3      5      
iter:   2  09:54:50         -1.57   -81.033534    4      2      
iter:   3  09:54:50         -1.74   -80.932074    4      2      
iter:   4  09:54:51         -2.05   -80.930956    3      2      
iter:   5  09:54:51         -2.14   -80.925813    3      2      
iter:   6  09:54:52         -2.25   -80.922029    3      2      
iter:   7  09:54:52         -2.44   -80.918539    3      2      
iter:   8  09:54:53         -2.62   -80.918130    3      2      
iter:   9  09:54:53         -2.88   -80.918123    2      1      
iter:  10  09:54:53         -2.96   -80.917857    2      1      
iter:  11  09:54:54         -3.17   -80.917181    2      1      
iter:  12  09:54:54         -3.33   -80.917147    2      1      
iter:  13  09:54:55         -3.42   -80.916956    2      1      
iter:  14  09:54:55         -3.61   -80.916565    2      1      
iter:  15  09:54:56         -3.85   -80.917365    2      1      
iter:  16  09:54:56         -3.99   -80.917346    2      1      
iter:  17  09:54:57         -4.07   -80.917271    2      1      

Converged after 17 iterations.

Dipole moment: (-0.100043, -0.023689, 0.115973) |e|*Ang

Energy contributions relative to reference atoms: (reference = -13359.165501)

Kinetic:        +68.748597
Potential:      -71.241472
External:        +0.000000
XC:             -79.700915
Entropy (-ST):   -0.351169
Local:           +1.452103
--------------------------
Free energy:    -81.092855
Extrapolated:   -80.917271

Fermi level: -6.62211

 Band  Eigenvalues  Occupancy
    0    -22.85715    2.00000
    1    -22.55367    2.00000
    2    -22.01529    2.00000
    3    -20.19843    2.00000
    4    -19.27268    2.00000
    5    -18.48483    2.00000
    6    -18.19487    2.00000
    7    -17.23342    2.00000
    8    -15.73226    2.00000
    9    -14.63319    2.00000
   10    -13.24920    2.00000
   11    -11.04540    2.00000
   12    -10.89307    2.00000
   13    -10.77240    2.00000
   14    -10.51788    2.00000
   15    -10.25088    2.00000
   16    -10.11817    2.00000
   17     -9.23500    2.00000
   18     -8.43095    2.00000
   19     -8.33754    2.00000
   20     -8.13166    2.00000
   21     -7.46558    1.99957
   22     -7.18807    1.99306
   23     -6.93326    1.91473
   24     -6.88355    1.86356
   25     -6.70020    1.37175
   26     -6.59337    0.85731
   27     -5.44955    0.00002
   28     -5.35077    0.00001
   29     -4.24055    0.00000
   30     -3.82925    0.00000
   31     -3.41896    0.00000
   32     -3.23226    0.00000
   33     -2.88976    0.00000
   34     -2.18377    0.00000
   35     -1.32219    0.00000
   36     -0.50801    0.00000
   37     -0.18334    0.00000
   38      1.44383    0.00000
   39      2.39501    0.00000
   40      2.68864    0.00000
   41      3.65102    0.00000
   42      4.86710    0.00000
   43      5.14361    0.00000
   44      6.30205    0.00000
   45      6.51972    0.00000
   46      6.95325    0.00000
   47      7.68927    0.00000
   48      7.85628    0.00000
   49      8.08347    0.00000
   50      8.29935    0.00000
   51      8.43303    0.00000
   52      8.54342    0.00000
   53      8.85056    0.00000
   54      8.93682    0.00000
   55      9.04396    0.00000
   56      9.18453    0.00000
   57      9.30230    0.00000
   58      9.63802    0.00000
   59      9.77815    0.00000
   60      9.91884    0.00000
   61      9.99366    0.00000
   62     10.15236    0.00000
   63     10.35986    0.00000
   64     10.51071    0.00000
   65     10.65763    0.00000
   66     10.89874    0.00000
   67     10.95807    0.00000
   68     11.68364    0.00000
   69     11.89932    0.00000
   70     12.19482    0.00000
   71     12.27326    0.00000
   72     12.59721    0.00000
   73     12.75306    0.00000
   74     13.22802    0.00000
   75     13.36816    0.00000


Forces in eV/Ang:
  0 C     1.77152   -4.19013   -0.10285
  1 C     1.80129    1.64865   -0.01653
  2 C     2.04135   -0.71177    0.39199
  3 C     5.71344   29.73963    1.01245
  4 C     0.49505    3.24711    0.02745
  5 C    -3.25504   -8.12505   -0.05979
  6 C    -1.77641    0.06561   -0.17085
  7 C    -2.44420   -0.81574   -1.13249
  8 C    -3.71989    0.68893   -0.00114
  9 C     3.54702    1.50162    0.91472
 10 C    -0.06137    0.46676    0.00384
 11 C     0.39620  -11.07095   -0.66223
 12 C    -4.56897  -12.36376   -0.22724

System changes: positions 

Initializing position-dependent things.

Density initialized from wave functions
                .----------------------------------------------------------.  
               /|                                                          |  
              / |                                                          |  
             /  |                                                          |  
            /   |                                                          |  
           /    |                                                          |  
          /     |                                                          |  
         /      |                                                          |  
        /       |                                                          |  
       /        |                                                          |  
      /         |                                                          |  
     /          |                                                          |  
    /           |                                                          |  
   /            |                                                          |  
  /             |                                                          |  
 *              |                                                          |  
 |              |                             C                            |  
 |              |                           C                              |  
 |              |            C  C       C C                                |  
 |              |               C     C                                    |  
 |              |            C        C                                    |  
 |              |                   C                                      |  
 |              .------------------C---------------------------------------.  
 |             /                  C                                       /   
 |            /                                                          /    
 |           /                                                          /     
 |          /                                                          /      
 |         /                                                          /       
 |        /                                                          /        
 |       /                                                          /         
 |      /                                                          /          
 |     /                                                          /           
 |    /                                                          /            
 |   /                                                          /             
 |  /                                                          /              
 | /                                                          /               
 |/                                                          /                
 *----------------------------------------------------------*                 

Positions:
   0 C     12.221406   10.878680    8.916530
   1 C     13.678734   14.452184    8.931408
   2 C      8.111790   12.844103    9.328827
   3 C     12.313836    7.956734    8.846168
   4 C     13.454358   13.161424    8.945467
   5 C     12.746346   12.156986    8.947382
   6 C      8.539731   10.756532    8.765344
   7 C      9.422912   12.435419    9.544410
   8 C     12.745173    9.321545    8.886078
   9 C      9.792951   11.139580    9.004751
  10 C     14.481691   15.489730    8.902052
  11 C     12.158194    5.630909    8.733009
  12 C     12.074337    6.848974    8.808697

Unit cell:
           periodic     x           y           z      points  spacing
  1. axis:    no    24.000000    0.000000    0.000000   120     0.2000
  2. axis:    no     0.000000   24.000000    0.000000   120     0.2000
  3. axis:    no     0.000000    0.000000   18.000000    88     0.2045

  Lengths:  24.000000  24.000000  18.000000
  Angles:   90.000000  90.000000  90.000000

Effective grid spacing dv^(1/3) = 0.2015

                     log10-error:    total        iterations:
           time      wfs    density  energy       fermi  poisson
iter:   1  09:54:58          +inf   -82.794223    3      5      
iter:   2  09:54:58         -1.55   -82.595426    4      2      
iter:   3  09:54:59         -1.74   -82.479896    4      2      
iter:   4  09:54:59         -2.01   -82.480180    3      1      
iter:   5  09:54:59         -1.97   -82.470848    3      2      
iter:   6  09:55:00         -2.35   -82.470431    2      1      
iter:   7  09:55:00         -2.41   -82.473051    2      2      
iter:   8  09:55:01         -2.51   -82.471250    3      1      
iter:   9  09:55:01         -2.68   -82.467069    3      2      
iter:  10  09:55:02         -2.80   -82.468449    2      1      
iter:  11  09:55:02         -2.97   -82.469342    2      1      
iter:  12  09:55:03         -3.07   -82.467953    3      1      
iter:  13  09:55:03         -3.24   -82.468003    2      1      
iter:  14  09:55:04         -3.36   -82.468039    2      1      
iter:  15  09:55:04         -3.49   -82.468022    2      1      
iter:  16  09:55:04         -3.68   -82.468081    2      1      
iter:  17  09:55:05         -3.76   -82.467791    2      1      
iter:  18  09:55:05         -3.86   -82.467876    2      1      
iter:  19  09:55:06         -3.96   -82.468140    2      1      
iter:  20  09:55:06         -4.15   -82.468094    2      1      

Converged after 20 iterations.

Dipole moment: (-0.104554, -0.036872, 0.119316) |e|*Ang

Energy contributions relative to reference atoms: (reference = -13359.165501)

Kinetic:        +62.469578
Potential:      -66.955552
External:        +0.000000
XC:             -79.260612
Entropy (-ST):   -0.349196
Local:           +1.453089
--------------------------
Free energy:    -82.642692
Extrapolated:   -82.468094

Fermi level: -6.65738

 Band  Eigenvalues  Occupancy
    0    -22.97319    2.00000
    1    -22.36512    2.00000
    2    -21.95290    2.00000
    3    -20.20411    2.00000
    4    -19.31369    2.00000
    5    -18.47574    2.00000
    6    -18.27599    2.00000
    7    -17.26300    2.00000
    8    -15.75515    2.00000
    9    -14.67849    2.00000
   10    -13.55373    2.00000
   11    -11.07654    2.00000
   12    -10.75489    2.00000
   13    -10.62335    2.00000
   14    -10.45869    2.00000
   15    -10.25589    2.00000
   16    -10.16807    2.00000
   17     -9.22053    2.00000
   18     -8.44072    2.00000
   19     -8.37116    2.00000
   20     -8.17759    2.00000
   21     -7.44711    1.99926
   22     -7.23010    1.99351
   23     -6.95542    1.90337
   24     -6.93531    1.88310
   25     -6.73528    1.37095
   26     -6.62711    0.84980
   27     -5.47160    0.00001
   28     -5.33700    0.00000
   29     -4.06588    0.00000
   30     -3.76966    0.00000
   31     -3.31786    0.00000
   32     -3.21436    0.00000
   33     -2.83568    0.00000
   34     -2.11050    0.00000
   35     -1.29431    0.00000
   36     -0.24460    0.00000
   37     -0.16540    0.00000
   38      1.66541    0.00000
   39      2.29553    0.00000
   40      2.61707    0.00000
   41      3.47727    0.00000
   42      4.87935    0.00000
   43      5.04666    0.00000
   44      6.30751    0.00000
   45      6.79336    0.00000
   46      7.00595    0.00000
   47      7.71778    0.00000
   48      7.83931    0.00000
   49      8.18700    0.00000
   50      8.39051    0.00000
   51      8.48408    0.00000
   52      8.58222    0.00000
   53      8.85523    0.00000
   54      8.96643    0.00000
   55      9.05625    0.00000
   56      9.21361    0.00000
   57      9.23282    0.00000
   58      9.61813    0.00000
   59      9.68509    0.00000
   60      9.76972    0.00000
   61      9.96380    0.00000
   62     10.17372    0.00000
   63     10.29662    0.00000
   64     10.51887    0.00000
   65     10.67915    0.00000
   66     10.91451    0.00000
   67     10.94476    0.00000
   68     11.72530    0.00000
   69     11.95120    0.00000
   70     12.25867    0.00000
   71     12.30469    0.00000
   72     12.61214    0.00000
   73     12.76648    0.00000
   74     13.24661    0.00000
   75     13.33793    0.00000


Forces in eV/Ang:
  0 C     1.96303   -4.08567   -0.08788
  1 C     1.52216    0.89468    0.00347
  2 C     1.44043   -0.50571    0.29375
  3 C     4.78051   24.34408    0.76670
  4 C     0.61263    3.78474   -0.00654
  5 C    -3.13788   -8.07975   -0.06560
  6 C    -1.50126    0.14697   -0.11940
  7 C    -1.84597   -0.82745   -0.94483
  8 C    -3.54987    1.51228   -0.00474
  9 C     3.27526    1.19446    0.77009
 10 C    -0.07969    0.37234   -0.00027
 11 C     0.26586   -8.38814   -0.51208
 12 C    -3.74703  -10.31764   -0.13058

System changes: positions 

Initializing position-dependent things.

Density initialized from wave functions
                .----------------------------------------------------------.  
               /|                                                          |  
              / |                                                          |  
             /  |                                                          |  
            /   |                                                          |  
           /    |                                                          |  
          /     |                                                          |  
         /      |                                                          |  
        /       |                                                          |  
       /        |                                                          |  
      /         |                                                          |  
     /          |                                                          |  
    /           |                                                          |  
   /            |                                                          |  
  /             |                                                          |  
 *              |                                                          |  
 |              |                             C                            |  
 |              |                           C                              |  
 |              |            C  C       C C                                |  
 |              |               C     C                                    |  
 |              |            C        C                                    |  
 |              |                   C                                      |  
 |              .------------------C---------------------------------------.  
 |             /                  C                                       /   
 |            /                                                          /    
 |           /                                                          /     
 |          /                                                          /      
 |         /                                                          /       
 |        /                                                          /        
 |       /                                                          /         
 |      /                                                          /          
 |     /                                                          /           
 |    /                                                          /            
 |   /                                                          /             
 |  /                                                          /              
 | /                                                          /               
 |/                                                          /                
 *----------------------------------------------------------*                 

Positions:
   0 C     12.238545   10.842542    8.915966
   1 C     13.686804   14.452553    8.931611
   2 C      8.115593   12.842817    9.329876
   3 C     12.327873    7.987441    8.844448
   4 C     13.435683   13.163437    8.945388
   5 C     12.747647   12.127273    8.946730
   6 C      8.540445   10.761689    8.766969
   7 C      9.415579   12.427761    9.538689
   8 C     12.715800    9.340565    8.886047
   9 C      9.806943   11.142690    9.007636
  10 C     14.482919   15.494696    8.901978
  11 C     12.157840    5.629104    8.732415
  12 C     12.069702    6.861008    8.811867

Unit cell:
           periodic     x           y           z      points  spacing
  1. axis:    no    24.000000    0.000000    0.000000   120     0.2000
  2. axis:    no     0.000000   24.000000    0.000000   120     0.2000
  3. axis:    no     0.000000    0.000000   18.000000    88     0.2045

  Lengths:  24.000000  24.000000  18.000000
  Angles:   90.000000  90.000000  90.000000

Effective grid spacing dv^(1/3) = 0.2015

                     log10-error:    total        iterations:
           time      wfs    density  energy       fermi  poisson
iter:   1  09:55:07          +inf   -84.041138    4      5      
iter:   2  09:55:08         -1.59   -83.867910    3      2      
iter:   3  09:55:08         -1.79   -83.773191    4      2      
iter:   4  09:55:09         -2.06   -83.762808    3      2      
iter:   5  09:55:09         -2.22   -83.758129    3      2      
iter:   6  09:55:10         -2.36   -83.753644    3      2      
iter:   7  09:55:10         -2.59   -83.754669    2      1      
iter:   8  09:55:11         -2.67   -83.754762    2      2      
iter:   9  09:55:11         -2.81   -83.753658    3      2      
iter:  10  09:55:12         -3.00   -83.754503    2      1      
iter:  11  09:55:12         -3.16   -83.752932    2      1      
iter:  12  09:55:12         -3.27   -83.753682    2      1      
iter:  13  09:55:13         -3.49   -83.754053    2      1      
iter:  14  09:55:13         -3.59   -83.752979    2      1      
iter:  15  09:55:14         -3.53   -83.754167    2      1      
iter:  16  09:55:14         -3.87   -83.754216    2      1      
iter:  17  09:55:15         -3.65   -83.753968    2      1      
iter:  18  09:55:15         -3.98   -83.753751    2      1      
iter:  19  09:55:15         -4.38   -83.753926    2      1      

Converged after 19 iterations.

Dipole moment: (-0.111891, -0.051000, 0.122381) |e|*Ang

Energy contributions relative to reference atoms: (reference = -13359.165501)

Kinetic:        +57.511935
Potential:      -63.588517
External:        +0.000000
XC:             -78.965586
Entropy (-ST):   -0.345248
Local:           +1.460865
--------------------------
Free energy:    -83.926550
Extrapolated:   -83.753926

Fermi level: -6.66179

 Band  Eigenvalues  Occupancy
    0    -23.03693    2.00000
    1    -22.23636    2.00000
    2    -21.85466    2.00000
    3    -20.27813    2.00000
    4    -19.36910    2.00000
    5    -18.46343    2.00000
    6    -18.29791    2.00000
    7    -17.25630    2.00000
    8    -15.79091    2.00000
    9    -14.71051    2.00000
   10    -13.87537    2.00000
   11    -11.10589    2.00000
   12    -10.69124    2.00000
   13    -10.51974    2.00000
   14    -10.37571    2.00000
   15    -10.25525    2.00000
   16    -10.15286    2.00000
   17     -9.21039    2.00000
   18     -8.46930    2.00000
   19     -8.43719    2.00000
   20     -8.23059    2.00000
   21     -7.41411    1.99892
   22     -7.25002    1.99444
   23     -6.99373    1.93018
   24     -6.92447    1.86513
   25     -6.73927    1.36911
   26     -6.62996    0.84220
   27     -5.46441    0.00001
   28     -5.30447    0.00000
   29     -3.89789    0.00000
   30     -3.74279    0.00000
   31     -3.26586    0.00000
   32     -3.21080    0.00000
   33     -2.79102    0.00000
   34     -2.01074    0.00000
   35     -1.23214    0.00000
   36     -0.17953    0.00000
   37      0.09592    0.00000
   38      1.81596    0.00000
   39      2.27610    0.00000
   40      2.52255    0.00000
   41      3.39212    0.00000
   42      4.83969    0.00000
   43      4.93993    0.00000
   44      6.23734    0.00000
   45      6.86779    0.00000
   46      7.11797    0.00000
   47      7.72975    0.00000
   48      7.84703    0.00000
   49      8.25245    0.00000
   50      8.45624    0.00000
   51      8.60877    0.00000
   52      8.63281    0.00000
   53      8.87117    0.00000
   54      8.99168    0.00000
   55      9.10944    0.00000
   56      9.21497    0.00000
   57      9.35169    0.00000
   58      9.48499    0.00000
   59      9.63410    0.00000
   60      9.74989    0.00000
   61      9.92616    0.00000
   62     10.20789    0.00000
   63     10.25606    0.00000
   64     10.52742    0.00000
   65     10.68208    0.00000
   66     10.92684    0.00000
   67     10.94210    0.00000
   68     11.76110    0.00000
   69     12.00880    0.00000
   70     12.32952    0.00000
   71     12.34514    0.00000
   72     12.62027    0.00000
   73     12.78904    0.00000
   74     13.23644    0.00000
   75     13.30887    0.00000


Forces in eV/Ang:
  0 C     2.06620   -3.88103   -0.08683
  1 C     1.31792    0.59470    0.01905
  2 C     1.08225   -0.38647    0.22650
  3 C     4.00499   20.47659    0.60838
  4 C    -0.08070    2.74230   -0.00937
  5 C    -2.28830   -6.64830   -0.06538
  6 C    -0.99560    0.33797   -0.00699
  7 C    -1.52029   -0.81264   -0.83635
  8 C    -3.32946    1.80177    0.00029
  9 C     2.70809    0.81520    0.58060
 10 C    -0.07545    0.36352   -0.00045
 11 C     0.18220   -6.82653   -0.42521
 12 C    -3.09774   -8.52593   -0.06038

System changes: positions 

Initializing position-dependent things.

Density initialized from wave functions
                .----------------------------------------------------------.  
               /|                                                          |  
              / |                                                          |  
             /  |                                                          |  
            /   |                                                          |  
           /    |                                                          |  
          /     |                                                          |  
         /      |                                                          |  
        /       |                                                          |  
       /        |                                                          |  
      /         |                                                          |  
     /          |                                                          |  
    /           |                                                          |  
   /            |                                                          |  
  /             |                                                          |  
 *              |                                                          |  
 |              |                             C                            |  
 |              |                           C                              |  
 |              |            C  C         C                                |  
 |              |               C     C C                                  |  
 |              |            C        C                                    |  
 |              |                   C                                      |  
 |              .------------------C---------------------------------------.  
 |             /                  C                                       /   
 |            /                                                          /    
 |           /                                                          /     
 |          /                                                          /      
 |         /                                                          /       
 |        /                                                          /        
 |       /                                                          /         
 |      /                                                          /          
 |     /                                                          /           
 |    /                                                          /            
 |   /                                                          /             
 |  /                                                          /              
 | /                                                          /               
 |/                                                          /                
 *----------------------------------------------------------*                 

Positions:
   0 C     12.257807   10.807492    8.915324
   1 C     13.693805   14.450089    8.931993
   2 C      8.117578   12.842079    9.330555
   3 C     12.339568    8.015828    8.842747
   4 C     13.415101   13.163141    8.945255
   5 C     12.750837   12.101516    8.946070
   6 C      8.544111   10.768607    8.769449
   7 C      9.409427   12.420056    9.533334
   8 C     12.687355    9.362593    8.886069
   9 C      9.818219   11.143057    9.009240
  10 C     14.483869   15.499492    8.901915
  11 C     12.157150    5.627738    8.731846
  12 C     12.066153    6.872687    8.815079

Unit cell:
           periodic     x           y           z      points  spacing
  1. axis:    no    24.000000    0.000000    0.000000   120     0.2000
  2. axis:    no     0.000000   24.000000    0.000000   120     0.2000
  3. axis:    no     0.000000    0.000000   18.000000    88     0.2045

  Lengths:  24.000000  24.000000  18.000000
  Angles:   90.000000  90.000000  90.000000

Effective grid spacing dv^(1/3) = 0.2015

                     log10-error:    total        iterations:
           time      wfs    density  energy       fermi  poisson
iter:   1  09:55:17          +inf   -85.054266    3      5      
iter:   2  09:55:17         -1.62   -84.884481    3      2      
iter:   3  09:55:18         -1.81   -84.786636    4      2      
iter:   4  09:55:18         -2.08   -84.782960    3      1      
iter:   5  09:55:18         -2.21   -84.779914    3      2      
iter:   6  09:55:19         -2.33   -84.771198    3      2      
iter:   7  09:55:19         -2.14   -84.773317    3      1      
iter:   8  09:55:20         -2.69   -84.774238    2      1      
iter:   9  09:55:20         -2.75   -84.771128    3      2      
iter:  10  09:55:21         -2.70   -84.774317    3      1      
iter:  11  09:55:21         -2.99   -84.775090    2      1      
iter:  12  09:55:22         -2.93   -84.770146    3      1      
iter:  13  09:55:22         -2.72   -84.773275    3      1      
iter:  14  09:55:22         -3.64   -84.773656    2      1      
iter:  15  09:55:23         -3.58   -84.772373    2      1      
iter:  16  09:55:23         -3.28   -84.773545    2      1      
iter:  17  09:55:24         -3.60   -84.773858    2      1      
iter:  18  09:55:24         -3.45   -84.772895    2      1      
iter:  19  09:55:25         -3.68   -84.773498    2      1      
iter:  20  09:55:25         -3.79   -84.773530    2      1      
iter:  21  09:55:26         -4.07   -84.773298    2      1      

Converged after 21 iterations.

Dipole moment: (-0.109722, -0.081151, 0.125031) |e|*Ang

Energy contributions relative to reference atoms: (reference = -13359.165501)

Kinetic:        +54.554836
Potential:      -61.687373
External:        +0.000000
XC:             -78.934235
Entropy (-ST):   -0.340868
Local:           +1.463907
--------------------------
Free energy:    -84.943732
Extrapolated:   -84.773298

Fermi level: -6.65855

 Band  Eigenvalues  Occupancy
    0    -23.09782    2.00000
    1    -22.15489    2.00000
    2    -21.77833    2.00000
    3    -20.37045    2.00000
    4    -19.41930    2.00000
    5    -18.46290    2.00000
    6    -18.31725    2.00000
    7    -17.23781    2.00000
    8    -15.82749    2.00000
    9    -14.71301    2.00000
   10    -14.17160    2.00000
   11    -11.13850    2.00000
   12    -10.67947    2.00000
   13    -10.45772    2.00000
   14    -10.33356    2.00000
   15    -10.23762    2.00000
   16    -10.11836    2.00000
   17     -9.19317    2.00000
   18     -8.52643    2.00000
   19     -8.43801    2.00000
   20     -8.27760    2.00000
   21     -7.39319    1.99871
   22     -7.27344    1.99574
   23     -7.02180    1.94846
   24     -6.91368    1.85533
   25     -6.73527    1.36584
   26     -6.62543    0.83591
   27     -5.46072    0.00001
   28     -5.28426    0.00000
   29     -3.74352    0.00000
   30     -3.70155    0.00000
   31     -3.22184    0.00000
   32     -3.17269    0.00000
   33     -2.73436    0.00000
   34     -1.90299    0.00000
   35     -1.15712    0.00000
   36     -0.16798    0.00000
   37      0.40829    0.00000
   38      1.84777    0.00000
   39      2.35511    0.00000
   40      2.42501    0.00000
   41      3.35119    0.00000
   42      4.77045    0.00000
   43      4.91507    0.00000
   44      6.16794    0.00000
   45      6.89754    0.00000
   46      7.16712    0.00000
   47      7.72315    0.00000
   48      7.85520    0.00000
   49      8.26658    0.00000
   50      8.47292    0.00000
   51      8.62608    0.00000
   52      8.74672    0.00000
   53      8.87965    0.00000
   54      8.97223    0.00000
   55      9.09394    0.00000
   56      9.17970    0.00000
   57      9.33355    0.00000
   58      9.58551    0.00000
   59      9.65853    0.00000
   60      9.81611    0.00000
   61      9.91000    0.00000
   62     10.23483    0.00000
   63     10.37741    0.00000
   64     10.53760    0.00000
   65     10.67627    0.00000
   66     10.94597    0.00000
   67     10.98308    0.00000
   68     11.78463    0.00000
   69     12.08814    0.00000
   70     12.37634    0.00000
   71     12.41939    0.00000
   72     12.63379    0.00000
   73     12.82144    0.00000
   74     13.22121    0.00000
   75     13.32432    0.00000


Forces in eV/Ang:
  0 C     2.10341   -3.19276   -0.07843
  1 C     1.21774    0.47026    0.02095
  2 C     0.81097   -0.30686    0.17581
  3 C     3.31470   17.32149    0.49893
  4 C    -0.34286    2.14161   -0.00697
  5 C    -1.84412   -5.81251   -0.07413
  6 C    -0.83878    0.42006    0.04390
  7 C    -1.24988   -0.77353   -0.72223
  8 C    -3.00835    1.65731   -0.01159
  9 C     2.44428    0.60809    0.49960
 10 C    -0.16823    0.20856    0.00447
 11 C     0.10467   -5.52645   -0.35022
 12 C    -2.51002   -7.07844   -0.02066

System changes: positions 

Initializing position-dependent things.

Density initialized from wave functions
                .----------------------------------------------------------.  
               /|                                                          |  
              / |                                                          |  
             /  |                                                          |  
            /   |                                                          |  
           /    |                                                          |  
          /     |                                                          |  
         /      |                                                          |  
        /       |                                                          |  
       /        |                                                          |  
      /         |                                                          |  
     /          |                                                          |  
    /           |                                                          |  
   /            |                                                          |  
  /             |                                                          |  
 *              |                                                          |  
 |              |                             C                            |  
 |              |                           C                              |  
 |              |            C  C         C                                |  
 |              |               C     C C                                  |  
 |              |            C        C                                    |  
 |              |                   C                                      |  
 |              .------------------C---------------------------------------.  
 |             /                  C                                       /   
 |            /                                                          /    
 |           /                                                          /     
 |          /                                                          /      
 |         /                                                          /       
 |        /                                                          /        
 |       /                                                          /         
 |      /                                                          /          
 |     /                                                          /           
 |    /                                                          /            
 |   /                                                          /             
 |  /                                                          /              
 | /                                                          /               
 |/                                                          /                
 *----------------------------------------------------------*                 

Positions:
   0 C     12.281744   10.775452    8.914625
   1 C     13.702185   14.447182    8.932429
   2 C      8.118156   12.841576    9.331008
   3 C     12.349974    8.045309    8.840986
   4 C     13.391899   13.161247    8.945145
   5 C     12.754453   12.072671    8.945145
   6 C      8.547447   10.777281    8.772568
   7 C      9.403784   12.411346    9.527887
   8 C     12.657066    9.385399    8.885900
   9 C      9.831673   11.142315    9.010998
  10 C     14.483145   15.502555    8.901932
  11 C     12.155793    5.628640    8.731355
  12 C     12.064154    6.885654    8.818615

Unit cell:
           periodic     x           y           z      points  spacing
  1. axis:    no    24.000000    0.000000    0.000000   120     0.2000
  2. axis:    no     0.000000   24.000000    0.000000   120     0.2000
  3. axis:    no     0.000000    0.000000   18.000000    88     0.2045

  Lengths:  24.000000  24.000000  18.000000
  Angles:   90.000000  90.000000  90.000000

Effective grid spacing dv^(1/3) = 0.2015

                     log10-error:    total        iterations:
           time      wfs    density  energy       fermi  poisson
iter:   1  09:55:27          +inf   -85.941973    3      5      
iter:   2  09:55:27         -1.62   -85.771002    3      2      
iter:   3  09:55:28         -1.81   -85.668675    3      2      
iter:   4  09:55:28         -2.07   -85.665744    3      2      
iter:   5  09:55:29         -2.21   -85.660995    3      2      
iter:   6  09:55:29         -2.32   -85.651541    3      2      
iter:   7  09:55:30         -2.45   -85.653733    3      1      
iter:   8  09:55:30         -2.69   -85.657957    3      2      
iter:   9  09:55:31         -2.71   -85.654357    3      1      
iter:  10  09:55:31         -3.04   -85.653553    2      1      
iter:  11  09:55:31         -3.16   -85.654557    2      1      
iter:  12  09:55:32         -3.27   -85.653986    2      1      
iter:  13  09:55:32         -3.51   -85.654420    2      1      
iter:  14  09:55:33         -3.62   -85.654723    2      1      
iter:  15  09:55:33         -3.77   -85.654813    2      1      
iter:  16  09:55:34         -3.83   -85.654705    2      1      
iter:  17  09:55:34         -3.91   -85.654666    2      1      
iter:  18  09:55:35         -4.02   -85.654725    2      1      

Converged after 18 iterations.

[...]
        /       |                                                          |  
       /        |                                                          |  
      /         |                                                          |  
     /          |                                                          |  
    /           |                                                          |  
   /            |                                                          |  
  /             |                                                          |  
 *              |                                                          |  
 |              |                             C                            |  
 |              |                           C                              |  
 |              |           C  C          C                                |  
 |              |           C  C         C                                 |  
 |              |                     C C                                  |  
 |              |                    C                                     |  
 |              .------------------C---------------------------------------.  
 |             /                  C                                       /   
 |            /                                                          /    
 |           /                                                          /     
 |          /                                                          /      
 |         /                                                          /       
 |        /                                                          /        
 |       /                                                          /         
 |      /                                                          /          
 |     /                                                          /           
 |    /                                                          /            
 |   /                                                          /             
 |  /                                                          /              
 | /                                                          /               
 |/                                                          /                
 *----------------------------------------------------------*                 

Positions:
   0 C     12.969128   10.591662    8.886366
   1 C     13.844021   14.392592    8.904652
   2 C      7.712748   12.809529    9.369806
   3 C     12.480271    8.051351    8.828566
   4 C     13.527982   13.119285    8.901512
   5 C     13.228149   11.862890    8.898919
   6 C      8.136620   11.530214    8.764235
   7 C      9.114555   12.392420    9.581173
   8 C     12.733246    9.317639    8.858892
   9 C      9.532553   11.109208    8.993040
  10 C     14.180923   15.666832    8.922477
  11 C     12.041389    5.462138    8.729601
  12 C     12.238762    6.764814    8.790870

Unit cell:
           periodic     x           y           z      points  spacing
  1. axis:    no    24.000000    0.000000    0.000000   120     0.2000
  2. axis:    no     0.000000   24.000000    0.000000   120     0.2000
  3. axis:    no     0.000000    0.000000   18.000000    88     0.2045

  Lengths:  24.000000  24.000000  18.000000
  Angles:   90.000000  90.000000  90.000000

Effective grid spacing dv^(1/3) = 0.2015

                     log10-error:    total        iterations:
           time      wfs    density  energy       fermi  poisson
iter:   1  10:00:29          +inf   -89.203919    2      4      
iter:   2  10:00:29         -2.76   -89.203921    2      1      
iter:   3  10:00:30         -2.83   -89.202019    2      1      
iter:   4  10:00:30         -3.10   -89.202245    2      1      
iter:   5  10:00:31         -3.46   -89.202411    2      1      
iter:   6  10:00:31         -3.67   -89.202703    1      1      
iter:   7  10:00:32         -3.75   -89.202328    2      1      
iter:   8  10:00:32         -3.85   -89.202650    1      1      
iter:   9  10:00:32         -4.02   -89.202880    1      1      

Converged after 9 iterations.

Dipole moment: (-0.074482, -0.012582, 0.013692) |e|*Ang

Energy contributions relative to reference atoms: (reference = -13359.165501)

Kinetic:        +56.522054
Potential:      -64.543841
External:        +0.000000
XC:             -82.637813
Entropy (-ST):   -0.019195
Local:           +1.466318
--------------------------
Free energy:    -89.212477
Extrapolated:   -89.202880

Fermi level: -6.43330

 Band  Eigenvalues  Occupancy
    0    -25.68185    2.00000
    1    -22.15290    2.00000
    2    -21.48363    2.00000
    3    -20.57613    2.00000
    4    -19.54917    2.00000
    5    -18.71007    2.00000
    6    -18.53165    2.00000
    7    -17.26159    2.00000
    8    -16.07149    2.00000
    9    -15.27219    2.00000
   10    -14.04843    2.00000
   11    -11.61412    2.00000
   12    -10.91857    2.00000
   13    -10.90273    2.00000
   14    -10.47802    2.00000
   15     -9.97347    2.00000
   16     -9.94746    2.00000
   17     -9.93780    2.00000
   18     -8.63155    2.00000
   19     -8.62529    2.00000
   20     -7.53848    1.99997
   21     -7.17246    1.99877
   22     -7.15587    1.99855
   23     -7.08907    1.99717
   24     -7.07149    1.99662
   25     -7.02520    1.99464
   26     -5.93884    0.01414
   27     -5.41919    0.00008
   28     -5.40766    0.00007
   29     -4.01510    0.00000
   30     -3.06440    0.00000
   31     -3.05896    0.00000
   32     -2.26221    0.00000
   33     -0.94079    0.00000
   34     -0.56775    0.00000
   35     -0.56224    0.00000
   36      1.96789    0.00000
   37      1.97718    0.00000
   38      2.60668    0.00000
   39      3.48221    0.00000
   40      3.99578    0.00000
   41      4.09040    0.00000
   42      4.14037    0.00000
   43      4.41797    0.00000
   44      5.19197    0.00000
   45      5.48688    0.00000
   46      5.77156    0.00000
   47      6.68714    0.00000
   48      7.11732    0.00000
   49      7.59571    0.00000
   50      7.79869    0.00000
   51      7.87266    0.00000
   52      8.19209    0.00000
   53      8.45122    0.00000
   54      8.68275    0.00000
   55      8.79606    0.00000
   56      8.90001    0.00000
   57      9.36579    0.00000
   58      9.41256    0.00000
   59      9.59681    0.00000
   60      9.60751    0.00000
   61      9.94932    0.00000
   62     10.20178    0.00000
   63     10.28139    0.00000
   64     10.43328    0.00000
   65     10.50384    0.00000
   66     10.71153    0.00000
   67     11.39022    0.00000
   68     11.69282    0.00000
   69     11.82648    0.00000
   70     12.06655    0.00000
   71     12.13849    0.00000
   72     12.83296    0.00000
   73     13.00803    0.00000
   74     13.02558    0.00000
   75     13.12308    0.00000


Forces in eV/Ang:
  0 C     0.00584   -0.01191   -0.02545
  1 C    -0.01614   -0.03276    0.01170
  2 C    -0.06839    0.06496    0.01490
  3 C     0.02457    0.10588   -0.00709
  4 C     0.01851   -0.00193    0.02050
  5 C     0.01417    0.01175    0.00092
  6 C     0.10034   -0.00127    0.02639
  7 C    -0.05058    0.01272   -0.00128
  8 C    -0.04256   -0.01360   -0.00261
  9 C     0.04201   -0.06910   -0.04794
 10 C    -0.01411    0.05738   -0.02722
 11 C    -0.02055    0.02601    0.00258
 12 C     0.00095   -0.24056   -0.00725

System changes: positions 

Initializing position-dependent things.

Density initialized from wave functions
                .----------------------------------------------------------.  
               /|                                                          |  
              / |                                                          |  
             /  |                                                          |  
            /   |                                                          |  
           /    |                                                          |  
          /     |                                                          |  
         /      |                                                          |  
        /       |                                                          |  
       /        |                                                          |  
      /         |                                                          |  
     /          |                                                          |  
    /           |                                                          |  
   /            |                                                          |  
  /             |                                                          |  
 *              |                                                          |  
 |              |                             C                            |  
 |              |                           C                              |  
 |              |           C  C          C                                |  
 |              |           C  C         C                                 |  
 |              |                     C C                                  |  
 |              |                    C                                     |  
 |              .------------------C---------------------------------------.  
 |             /                  C                                       /   
 |            /                                                          /    
 |           /                                                          /     
 |          /                                                          /      
 |         /                                                          /       
 |        /                                                          /        
 |       /                                                          /         
 |      /                                                          /          
 |     /                                                          /           
 |    /                                                          /            
 |   /                                                          /             
 |  /                                                          /              
 | /                                                          /               
 |/                                                          /                
 *----------------------------------------------------------*                 

Positions:
   0 C     12.978447   10.587573    8.885035
   1 C     13.851082   14.390015    8.904719
   2 C      7.705330   12.815238    9.371677
   3 C     12.484838    8.048477    8.827631
   4 C     13.534576   13.116787    8.901791
   5 C     13.234510   11.859692    8.898762
   6 C      8.129606   11.537212    8.762376
   7 C      9.105734   12.394455    9.582620
   8 C     12.740428    9.313941    8.856514
   9 C      9.523153   11.110291    8.991288
  10 C     14.170276   15.670475    8.921727
  11 C     12.038652    5.460410    8.729178
  12 C     12.241650    6.760915    8.790969

Unit cell:
           periodic     x           y           z      points  spacing
  1. axis:    no    24.000000    0.000000    0.000000   120     0.2000
  2. axis:    no     0.000000   24.000000    0.000000   120     0.2000
  3. axis:    no     0.000000    0.000000   18.000000    88     0.2045

  Lengths:  24.000000  24.000000  18.000000
  Angles:   90.000000  90.000000  90.000000

Effective grid spacing dv^(1/3) = 0.2015

                     log10-error:    total        iterations:
           time      wfs    density  energy       fermi  poisson
iter:   1  10:00:33          +inf   -89.204278    2      4      
iter:   2  10:00:34         -2.87   -89.204495    2      1      
iter:   3  10:00:34         -2.96   -89.204793    2      1      
iter:   4  10:00:35         -3.11   -89.205574    2      1      
iter:   5  10:00:35         -3.53   -89.204296    2      1      
iter:   6  10:00:36         -3.32   -89.203703    2      1      
iter:   7  10:00:36         -3.71   -89.204207    2      1      
iter:   8  10:00:37         -3.17   -89.203556    2      1      
iter:   9  10:00:37         -4.14   -89.203767    1      1      

Converged after 9 iterations.

Dipole moment: (-0.064471, -0.006347, 0.013366) |e|*Ang

Energy contributions relative to reference atoms: (reference = -13359.165501)

Kinetic:        +56.277456
Potential:      -64.341716
External:        +0.000000
XC:             -82.587036
Entropy (-ST):   -0.018881
Local:           +1.456969
--------------------------
Free energy:    -89.213207
Extrapolated:   -89.203767

Fermi level: -6.43539

 Band  Eigenvalues  Occupancy
    0    -25.68053    2.00000
    1    -22.15391    2.00000
    2    -21.48341    2.00000
    3    -20.57554    2.00000
    4    -19.54998    2.00000
    5    -18.71322    2.00000
    6    -18.53337    2.00000
    7    -17.26244    2.00000
    8    -16.07122    2.00000
    9    -15.27317    2.00000
   10    -14.03065    2.00000
   11    -11.61118    2.00000
   12    -10.91767    2.00000
   13    -10.90348    2.00000
   14    -10.46432    2.00000
   15     -9.97717    2.00000
   16     -9.94724    2.00000
   17     -9.93837    2.00000
   18     -8.63196    2.00000
   19     -8.62566    2.00000
   20     -7.53057    1.99996
   21     -7.16949    1.99870
   22     -7.16326    1.99862
   23     -7.09254    1.99720
   24     -7.07372    1.99663
   25     -7.03180    1.99487
   26     -5.93885    0.01385
   27     -5.42231    0.00008
   28     -5.41127    0.00007
   29     -3.99793    0.00000
   30     -3.06720    0.00000
   31     -3.06232    0.00000
   32     -2.24969    0.00000
   33     -0.94823    0.00000
   34     -0.57212    0.00000
   35     -0.56637    0.00000
   36      1.96249    0.00000
   37      1.96952    0.00000
   38      2.59696    0.00000
   39      3.50204    0.00000
   40      3.99299    0.00000
   41      4.07830    0.00000
   42      4.11621    0.00000
   43      4.39021    0.00000
   44      5.18653    0.00000
   45      5.48787    0.00000
   46      5.75991    0.00000
   47      6.68648    0.00000
   48      7.11513    0.00000
   49      7.59641    0.00000
   50      7.79888    0.00000
   51      7.87924    0.00000
   52      8.18772    0.00000
   53      8.45003    0.00000
   54      8.68626    0.00000
   55      8.79623    0.00000
   56      8.90055    0.00000
   57      9.36664    0.00000
   58      9.41013    0.00000
   59      9.58999    0.00000
   60      9.60869    0.00000
   61      9.94512    0.00000
   62     10.20238    0.00000
   63     10.28256    0.00000
   64     10.43415    0.00000
   65     10.51801    0.00000
   66     10.70981    0.00000
   67     11.38143    0.00000
   68     11.68836    0.00000
   69     11.82447    0.00000
   70     12.05917    0.00000
   71     12.13506    0.00000
   72     12.83243    0.00000
   73     13.00624    0.00000
   74     13.02358    0.00000
   75     13.12174    0.00000


Forces in eV/Ang:
  0 C    -0.00413    0.02432   -0.03081
  1 C    -0.01045    0.04969    0.02075
  2 C    -0.05039    0.04302   -0.00429
  3 C     0.01841    0.02939   -0.00550
  4 C     0.01103   -0.03590    0.01835
  5 C     0.03069    0.01776   -0.00190
  6 C     0.04070    0.00032   -0.00707
  7 C    -0.00355    0.00458    0.01258
  8 C    -0.03180   -0.00845    0.00686
  9 C     0.01608   -0.02102   -0.03557
 10 C    -0.01074   -0.03174   -0.01590
 11 C    -0.02715   -0.04036    0.00274
 12 C     0.01522   -0.08911   -0.00476

Timing:                                       incl.     excl.
--------------------------------------------------------------------
Basic WFS set positions:                      0.018     0.016   0.0% |
 Redistribute:                                0.003     0.003   0.0% |
Basis functions set positions:                0.713     0.713   0.2% |
Forces:                                      19.558    16.625   4.3% |-|
 LCAO forces:                                 2.932     0.044   0.0% |
  Atomic Hamiltonian force:                   0.000     0.000   0.0% |
  Initial:                                    0.030     0.000   0.0% |
   Get density matrix:                        0.030     0.030   0.0% |
  Paw correction:                             0.002     0.002   0.0% |
  Potential:                                  0.028     0.028   0.0% |
  TCI derivative:                             2.828     2.828   0.7% |
  Wait for sum:                               0.000     0.000   0.0% |
LCAO WFS Initialize:                         27.900     0.014   0.0% |
 Density initialized from wave functions:     4.481     4.462   1.2% |
  Calculate density matrix:                   0.019     0.019   0.0% |
  Construct density:                          0.000     0.000   0.0% |
  Symmetrize density:                         0.001     0.001   0.0% |
 Hamiltonian:                                23.405     0.005   0.0% |
  Atomic:                                     0.010     0.010   0.0% |
   XC Correction:                             0.000     0.000   0.0% |
  Calculate atomic Hamiltonians:              0.014     0.014   0.0% |
  Communicate:                                2.181     2.181   0.6% |
  Hartree integrate/restrict:                 0.354     0.354   0.1% |
  Initialize Hamiltonian:                     0.002     0.002   0.0% |
  Poisson:                                   12.442    12.442   3.2% ||
  XC 3D grid:                                 8.302     8.302   2.1% ||
  vbar:                                       0.094     0.094   0.0% |
Redistribute:                                 0.006     0.006   0.0% |
SCF-cycle:                                  337.024     0.331   0.1% |
 Density:                                    67.452     0.015   0.0% |
  Atomic density matrices:                   60.029    60.029  15.5% |-----|
  Mix:                                        6.873     6.873   1.8% ||
  Multipole moments:                          0.151     0.151   0.0% |
  Normalize:                                  0.072     0.072   0.0% |
  Pseudo density:                             0.312     0.110   0.0% |
   Calculate density matrix:                  0.187     0.187   0.0% |
   Construct density:                         0.005     0.005   0.0% |
   Symmetrize density:                        0.009     0.009   0.0% |
 Hamiltonian:                               204.474     0.072   0.0% |
  Atomic:                                     0.153     0.150   0.0% |
   XC Correction:                             0.003     0.003   0.0% |
  Calculate atomic Hamiltonians:              0.205     0.205   0.1% |
  Communicate:                               31.454    31.454   8.1% |--|
  Hartree integrate/restrict:                 5.054     5.054   1.3% ||
  Poisson:                                   47.443    47.443  12.2% |----|
  XC 3D grid:                               118.756   118.756  30.6% |-----------|
  vbar:                                       1.336     1.336   0.3% |
 LCAO eigensolver:                           64.767     0.062   0.0% |
  Calculate projections:                      0.005     0.005   0.0% |
  DenseAtomicCorrection:                      0.015     0.015   0.0% |
  Distribute overlap matrix:                 59.742    59.742  15.4% |-----|
  Orbital Layouts:                            4.896     4.896   1.3% ||
  Potential matrix:                           0.047     0.047   0.0% |
Set symmetry:                                 0.095     0.095   0.0% |
TCI: Calculate S, T, P:                       0.169     0.169   0.0% |
TCI: Evaluate splines:                        0.061     0.061   0.0% |
Other:                                        2.174     2.174   0.6% |
--------------------------------------------------------------------
Total:                                                387.719 100.0%

Memory usage: 205.37 MiB
Date: Fri Mar 23 10:00:37 2018
