
  ___ ___ ___ _ _ _  
 |   |   |_  | | | | 
 | | | | | . | | | | 
 |__ |  _|___|_____|  1.3.1b1
 |___|_|             

User:   mkb@s91n12.grendel.cscaa.dk
Date:   Fri Mar 23 10:02:57 2018
Arch:   x86_64
Pid:    423519
Python: 2.7.13
gpaw:   /home/mkb/gpaw/gpaw
_gpaw:  /home/mkb/gpaw/build/bin.linux-x86_64-2.7/gpaw-python
ase:    /home/mkb/ase/ase (version 3.15.1b1)
numpy:  /comm/swstack/core/python/2.7.13/lib/python2.7/site-packages/numpy (version 1.13.3)
scipy:  /comm/swstack/core/python/2.7.13/lib/python2.7/site-packages/scipy (version 0.19.1)
units:  Angstrom and eV
cores:  36
Extra parameters: {'blacs': True}

Input parameters:
  basis: dzp
  gpts: [120 120  88]
  kpts: [1 1 1]
  maxiter: 99
  mixer: {backend: pulay,
          beta: 0.05,
          method: separate,
          nmaxold: 5,
          weight: 75}
  mode: lcao
  nbands: -50
  occupations: {name: fermi-dirac,
                width: 0.1}
  poissonsolver: {eps: 1e-07,
                  name: fd,
                  nn: 3,
                  relax: GS}
  xc: PBE

System changes: positions, numbers, cell, pbc, initial_charges, initial_magmoms 

Initialize ...

C-setup:
  name: Carbon
  id: 4aa54d4b901d75f77cc0ea3eec22967b
  Z: 6
  valence: 4
  core: 2
  charge: 0.0
  file: /home/esb/DFT/gpaw-setups-0.8.7929/C.PBE.gz
  cutoffs: 0.64(comp), 1.14(filt), 1.14(core), lmax=2
  valence states:
                energy  radius
    2s(2.00)   -13.751   0.635
    2p(2.00)    -5.284   0.635
    *s          13.461   0.635
    *p          21.927   0.635
    *d           0.000   0.635

  LCAO basis set for C:
    Name: dzp
    File: /home/esb/DFT/gpaw-setups-0.8.7929/C.dzp.basis.gz
    Number of radial functions: 5
    Number of spherical harmonics: 13
      l=0, rc=5.5469 Bohr: 2s-sz confined orbital
      l=1, rc=6.6719 Bohr: 2p-sz confined orbital
      l=0, rc=3.0312 Bohr: 2s-dz split-valence wave
      l=1, rc=3.7500 Bohr: 2p-dz split-valence wave
      l=2, rc=6.6719 Bohr: d-type Gaussian polarization

Reference energy: -13359.165501

Spin-paired calculation

Occupation numbers:
  Fermi-Dirac: width=0.1000 eV

Convergence criteria:
  Maximum total energy change: 0.0005 eV / electron
  Maximum integral of absolute density change: 0.0001 electrons
  Maximum integral of absolute eigenstate change: 4e-08 eV^2
  Maximum number of iterations: 99

Symmetries present (total): 1

  ( 1  0  0)
  ( 0  1  0)
  ( 0  0  1)

1 k-point (Gamma)
1 k-point in the irreducible part of the Brillouin zone
       k-points in crystal coordinates                weights
   0:     0.00000000    0.00000000    0.00000000          1/1

Wave functions: LCAO
  Diagonalizer: Serial LAPACK
  Atomic Correction: dense with blas
  Datatype: float
  Eigensolver: None 

LCAO using direct dense diagonalizer 

Densities:
  Coarse grid: 120*120*88 grid
  Fine grid: 240*240*176 grid
  Total Charge: 0.000000 

Density mixing:
  Method: separate
  Backend: pulay
  Linear mixing parameter: 0.05
  Mixing with 5 old densities
  Damping of long wave oscillations: 75 

Hamiltonian:
  XC and Coulomb potentials evaluated on a 240*240*176 grid
  Using the PBE Exchange-Correlation functional
  Interpolation: tri-quintic (5. degree polynomial)
  Poisson solver: Gauss-Seidel solver with 5 multi-grid levels
    Coarsest grid: 15 x 15 x 11 points
    Stencil: 6*3+1=19 point O(h^6) finite-difference Laplacian
    Max iterations: 1000
    Tolerance: 1.000000e-07 

Memory estimate:
  Process memory now: 210.57 MiB
  Calculator: 19.91 MiB
    Density: 9.40 MiB
      Arrays: 6.69 MiB
      Localized functions: 0.21 MiB
      Mixer: 2.50 MiB
    Hamiltonian: 9.40 MiB
      Arrays: 4.38 MiB
      XC: 0.00 MiB
      Poisson: 5.01 MiB
      vbar: 0.02 MiB
    Wavefunctions: 1.11 MiB
      C [qnM]: 0.10 MiB
      S, T [2 x qmm]: 0.44 MiB
      P [aqMi]: 0.00 MiB
      TCI: 0.00 MiB
      BasisFunctions: 0.57 MiB
      Eigensolver: 0.00 MiB

Total number of cores used: 36
Domain decomposition: 3 x 4 x 3

Number of atoms: 13
Number of atomic orbitals: 169
Number of bands in calculation: 76
Bands to converge: occupied states only
Number of valence electrons: 52

... initialized

Initializing position-dependent things.

Density initialized from atomic densities
                .----------------------------------------------------------.  
               /|                                                          |  
              / |                                                          |  
             /  |                                                          |  
            /   |                                                          |  
           /    |                                                          |  
          /     |                                                          |  
         /      |                                                          |  
        /       |                                                          |  
       /        |                                                          |  
      /         |                                                          |  
     /          |                                                          |  
    /           |                                                          |  
   /            |                                                          |  
  /             |                                                          |  
 *              |                                                          |  
 |              |                            C                             |  
 |              |            C             C                               |  
 |              |                C        C                                |  
 |              |            C C         C                                 |  
 |              |                      CC                                  |  
 |              |                    C                                     |  
 |              .-------------------C--------------------------------------.  
 |             /                  C                                       /   
 |            /                                                          /    
 |           /                                                          /     
 |          /                                                          /      
 |         /                                                          /       
 |        /                                                          /        
 |       /                                                          /         
 |      /                                                          /          
 |     /                                                          /           
 |    /                                                          /            
 |   /                                                          /             
 |  /                                                          /              
 | /                                                          /               
 |/                                                          /                
 *----------------------------------------------------------*                 

Positions:
   0 C     13.009635   10.463116    8.885035
   1 C     13.600889   14.352646    8.904719
   2 C      8.096394   13.118716    9.371677
   3 C     12.762994    7.864357    8.827631
   4 C     13.458294   13.041855    8.901791
   5 C     13.165026   11.765507    8.898762
   6 C      8.931955   12.193214    8.762376
   7 C      9.936958   11.517757    9.582620
   8 C     12.969606    9.156860    8.856514
   9 C      8.793247   10.788785    8.991288
  10 C     13.922203   15.714579    8.921727
  11 C     12.184472    5.171671    8.729178
  12 C     12.537224    6.546901    8.790969

Unit cell:
           periodic     x           y           z      points  spacing
  1. axis:    no    24.000000    0.000000    0.000000   120     0.2000
  2. axis:    no     0.000000   24.000000    0.000000   120     0.2000
  3. axis:    no     0.000000    0.000000   18.000000    88     0.2045

  Lengths:  24.000000  24.000000  18.000000
  Angles:   90.000000  90.000000  90.000000

Effective grid spacing dv^(1/3) = 0.2015

                     log10-error:    total        iterations:
           time      wfs    density  energy       fermi  poisson
iter:   1  10:02:58          +inf   -89.457909    1      6      
iter:   2  10:02:59         -0.85   -89.042427    3      3      
iter:   3  10:03:00         -0.88   -87.877365    6      4      
iter:   4  10:03:00         -1.14   -87.521175    2      3      
iter:   5  10:03:01         -1.21   -87.409452    5      3      
iter:   6  10:03:01         -1.51   -87.240615    3      3      
iter:   7  10:03:02         -1.86   -87.237898    2      2      
iter:   8  10:03:02         -1.97   -87.237530    3      2      
iter:   9  10:03:03         -2.10   -87.232048    3      2      
iter:  10  10:03:03         -2.22   -87.229131    3      2      
iter:  11  10:03:04         -2.38   -87.229477    3      2      
iter:  12  10:03:04         -2.75   -87.239858    2      1      
iter:  13  10:03:04         -2.88   -87.233556    2      1      
iter:  14  10:03:05         -3.05   -87.218197    2      1      
iter:  15  10:03:05         -3.19   -87.222926    2      1      
iter:  16  10:03:06         -3.31   -87.223795    1      1      
iter:  17  10:03:06         -3.42   -87.222543    2      1      
iter:  18  10:03:07         -3.48   -87.222255    2      1      
iter:  19  10:03:07         -3.53   -87.225900    2      1      
iter:  20  10:03:07         -3.75   -87.224228    2      1      
iter:  21  10:03:08         -3.90   -87.223537    2      1      
iter:  22  10:03:08         -4.04   -87.224579    2      1      

Converged after 22 iterations.

Dipole moment: (0.029626, 0.095768, -0.171344) |e|*Ang

Energy contributions relative to reference atoms: (reference = -13359.165501)

Kinetic:        +36.738032
Potential:      -48.730220
External:        +0.000000
XC:             -76.684238
Entropy (-ST):   -0.021625
Local:           +1.462659
--------------------------
Free energy:    -87.235392
Extrapolated:   -87.224579

Fermi level: -6.28006

 Band  Eigenvalues  Occupancy
    0    -24.28091    2.00000
    1    -21.91018    2.00000
    2    -21.20641    2.00000
    3    -20.25897    2.00000
    4    -19.15240    2.00000
    5    -18.53898    2.00000
    6    -18.09098    2.00000
    7    -16.90375    2.00000
    8    -15.78805    2.00000
    9    -15.02862    2.00000
   10    -13.25926    2.00000
   11    -11.73034    2.00000
   12    -10.72206    2.00000
   13    -10.65768    2.00000
   14    -10.28251    2.00000
   15     -9.69164    2.00000
   16     -9.68002    2.00000
   17     -8.54352    2.00000
   18     -8.38601    2.00000
   19     -8.36900    2.00000
   20     -7.67149    2.00000
   21     -7.55458    1.99999
   22     -7.30182    1.99993
   23     -7.03520    1.99895
   24     -6.86052    1.99399
   25     -6.80778    1.98984
   26     -5.80352    0.01689
   27     -5.36545    0.00021
   28     -5.35627    0.00019
   29     -4.43804    0.00000
   30     -3.36304    0.00000
   31     -3.31360    0.00000
   32     -3.19139    0.00000
   33     -2.47436    0.00000
   34     -1.12384    0.00000
   35     -1.05908    0.00000
   36      1.17808    0.00000
   37      1.39861    0.00000
   38      2.26760    0.00000
   39      2.88068    0.00000
   40      3.19981    0.00000
   41      3.66753    0.00000
   42      3.77253    0.00000
   43      4.91655    0.00000
   44      4.96668    0.00000
   45      5.32633    0.00000
   46      6.65230    0.00000
   47      6.89388    0.00000
   48      7.00113    0.00000
   49      7.60075    0.00000
   50      7.78840    0.00000
   51      8.02931    0.00000
   52      8.57290    0.00000
   53      8.77218    0.00000
   54      8.86196    0.00000
   55      8.97273    0.00000
   56      9.11187    0.00000
   57      9.18235    0.00000
   58      9.26599    0.00000
   59      9.67437    0.00000
   60      9.90430    0.00000
   61      9.95613    0.00000
   62     10.23974    0.00000
   63     10.39015    0.00000
   64     10.49919    0.00000
   65     10.68482    0.00000
   66     11.00896    0.00000
   67     11.15595    0.00000
   68     11.70740    0.00000
   69     11.75130    0.00000
   70     12.30568    0.00000
   71     12.42734    0.00000
   72     12.61740    0.00000
   73     12.71045    0.00000
   74     13.05686    0.00000
   75     13.21791    0.00000

Timing:                              incl.     excl.
-----------------------------------------------------------
Basic WFS set positions:             0.000     0.000   0.0% |
Basis functions set positions:       0.014     0.014   0.1% |
LCAO WFS Initialize:                 0.522     0.013   0.1% |
 Hamiltonian:                        0.510     0.000   0.0% |
  Atomic:                            0.000     0.000   0.0% |
   XC Correction:                    0.000     0.000   0.0% |
  Calculate atomic Hamiltonians:     0.000     0.000   0.0% |
  Communicate:                       0.043     0.043   0.4% |
  Hartree integrate/restrict:        0.007     0.007   0.1% |
  Initialize Hamiltonian:            0.002     0.002   0.0% |
  Poisson:                           0.295     0.295   2.7% ||
  XC 3D grid:                        0.161     0.161   1.5% ||
  vbar:                              0.002     0.002   0.0% |
SCF-cycle:                           9.987     0.009   0.1% |
 Density:                            1.894     0.000   0.0% |
  Atomic density matrices:           1.682     1.682  15.3% |-----|
  Mix:                               0.196     0.196   1.8% ||
  Multipole moments:                 0.004     0.004   0.0% |
  Normalize:                         0.002     0.002   0.0% |
  Pseudo density:                    0.008     0.003   0.0% |
   Calculate density matrix:         0.005     0.005   0.0% |
   Construct density:                0.000     0.000   0.0% |
   Symmetrize density:               0.000     0.000   0.0% |
 Hamiltonian:                        6.360     0.002   0.0% |
  Atomic:                            0.004     0.004   0.0% |
   XC Correction:                    0.000     0.000   0.0% |
  Calculate atomic Hamiltonians:     0.006     0.006   0.1% |
  Communicate:                       0.895     0.895   8.2% |--|
  Hartree integrate/restrict:        0.146     0.146   1.3% ||
  Poisson:                           1.870     1.870  17.0% |------|
  XC 3D grid:                        3.398     3.398  31.0% |-----------|
  vbar:                              0.039     0.039   0.4% |
 LCAO eigensolver:                   1.724     0.002   0.0% |
  Calculate projections:             0.000     0.000   0.0% |
  DenseAtomicCorrection:             0.000     0.000   0.0% |
  Distribute overlap matrix:         1.583     1.583  14.4% |-----|
  Orbital Layouts:                   0.136     0.136   1.2% |
  Potential matrix:                  0.002     0.002   0.0% |
Set symmetry:                        0.090     0.090   0.8% |
TCI: Calculate S, T, P:              0.003     0.003   0.0% |
TCI: Evaluate splines:               0.062     0.062   0.6% |
Other:                               0.299     0.299   2.7% ||
-----------------------------------------------------------
Total:                                        10.978 100.0%

Memory usage: 212.42 MiB
Date: Fri Mar 23 10:03:08 2018
