
  ___ ___ ___ _ _ _  
 |   |   |_  | | | | 
 | | | | | . | | | | 
 |__ |  _|___|_____|  1.3.1b1
 |___|_|             

User:   mkb@s91n12.grendel.cscaa.dk
Date:   Fri Mar 23 10:19:42 2018
Arch:   x86_64
Pid:    423519
Python: 2.7.13
gpaw:   /home/mkb/gpaw/gpaw
_gpaw:  /home/mkb/gpaw/build/bin.linux-x86_64-2.7/gpaw-python
ase:    /home/mkb/ase/ase (version 3.15.1b1)
numpy:  /comm/swstack/core/python/2.7.13/lib/python2.7/site-packages/numpy (version 1.13.3)
scipy:  /comm/swstack/core/python/2.7.13/lib/python2.7/site-packages/scipy (version 0.19.1)
units:  Angstrom and eV
cores:  36
Extra parameters: {'blacs': True}

Input parameters:
  basis: dzp
  gpts: [120 120  88]
  kpts: [1 1 1]
  maxiter: 99
  mixer: {backend: pulay,
          beta: 0.05,
          method: separate,
          nmaxold: 5,
          weight: 75}
  mode: lcao
  nbands: -50
  occupations: {name: fermi-dirac,
                width: 0.1}
  poissonsolver: {eps: 1e-07,
                  name: fd,
                  nn: 3,
                  relax: GS}
  xc: PBE

System changes: positions, numbers, cell, pbc, initial_charges, initial_magmoms 

Initialize ...

C-setup:
  name: Carbon
  id: 4aa54d4b901d75f77cc0ea3eec22967b
  Z: 6
  valence: 4
  core: 2
  charge: 0.0
  file: /home/esb/DFT/gpaw-setups-0.8.7929/C.PBE.gz
  cutoffs: 0.64(comp), 1.14(filt), 1.14(core), lmax=2
  valence states:
                energy  radius
    2s(2.00)   -13.751   0.635
    2p(2.00)    -5.284   0.635
    *s          13.461   0.635
    *p          21.927   0.635
    *d           0.000   0.635

  LCAO basis set for C:
    Name: dzp
    File: /home/esb/DFT/gpaw-setups-0.8.7929/C.dzp.basis.gz
    Number of radial functions: 5
    Number of spherical harmonics: 13
      l=0, rc=5.5469 Bohr: 2s-sz confined orbital
      l=1, rc=6.6719 Bohr: 2p-sz confined orbital
      l=0, rc=3.0312 Bohr: 2s-dz split-valence wave
      l=1, rc=3.7500 Bohr: 2p-dz split-valence wave
      l=2, rc=6.6719 Bohr: d-type Gaussian polarization

Reference energy: -13359.165501

Spin-paired calculation

Occupation numbers:
  Fermi-Dirac: width=0.1000 eV

Convergence criteria:
  Maximum total energy change: 0.0005 eV / electron
  Maximum integral of absolute density change: 0.0001 electrons
  Maximum integral of absolute eigenstate change: 4e-08 eV^2
  Maximum number of iterations: 99

Symmetries present (total): 1

  ( 1  0  0)
  ( 0  1  0)
  ( 0  0  1)

1 k-point (Gamma)
1 k-point in the irreducible part of the Brillouin zone
       k-points in crystal coordinates                weights
   0:     0.00000000    0.00000000    0.00000000          1/1

Wave functions: LCAO
  Diagonalizer: Serial LAPACK
  Atomic Correction: dense with blas
  Datatype: float
  Eigensolver: None 

LCAO using direct dense diagonalizer 

Densities:
  Coarse grid: 120*120*88 grid
  Fine grid: 240*240*176 grid
  Total Charge: 0.000000 

Density mixing:
  Method: separate
  Backend: pulay
  Linear mixing parameter: 0.05
  Mixing with 5 old densities
  Damping of long wave oscillations: 75 

Hamiltonian:
  XC and Coulomb potentials evaluated on a 240*240*176 grid
  Using the PBE Exchange-Correlation functional
  Interpolation: tri-quintic (5. degree polynomial)
  Poisson solver: Gauss-Seidel solver with 5 multi-grid levels
    Coarsest grid: 15 x 15 x 11 points
    Stencil: 6*3+1=19 point O(h^6) finite-difference Laplacian
    Max iterations: 1000
    Tolerance: 1.000000e-07 

Memory estimate:
  Process memory now: 217.71 MiB
  Calculator: 19.91 MiB
    Density: 9.40 MiB
      Arrays: 6.69 MiB
      Localized functions: 0.21 MiB
      Mixer: 2.50 MiB
    Hamiltonian: 9.40 MiB
      Arrays: 4.38 MiB
      XC: 0.00 MiB
      Poisson: 5.01 MiB
      vbar: 0.02 MiB
    Wavefunctions: 1.11 MiB
      C [qnM]: 0.10 MiB
      S, T [2 x qmm]: 0.44 MiB
      P [aqMi]: 0.00 MiB
      TCI: 0.00 MiB
      BasisFunctions: 0.57 MiB
      Eigensolver: 0.00 MiB

Total number of cores used: 36
Domain decomposition: 3 x 4 x 3

Number of atoms: 13
Number of atomic orbitals: 169
Number of bands in calculation: 76
Bands to converge: occupied states only
Number of valence electrons: 52

... initialized

Initializing position-dependent things.

Density initialized from atomic densities
                .----------------------------------------------------------.  
               /|                                                          |  
              / |                                                          |  
             /  |                                                          |  
            /   |                                                          |  
           /    |                                                          |  
          /     |                                                          |  
         /      |                                                          |  
        /       |                                                          |  
       /        |                                                          |  
      /         |                                                          |  
     /          |                                                          |  
    /           |                                                          |  
   /            |                                                          |  
  /             |                                                          |  
 *              |                                                          |  
 |              |                                                          |  
 |              |             CC             C                             |  
 |              |               C         CC                               |  
 |              |              C         C                                 |  
 |              |                     C                                    |  
 |              |                  C  C                                    |  
 |              .----------------C-----------------------------------------.  
 |             /                C                                         /   
 |            /                                                          /    
 |           /                                                          /     
 |          /                                                          /      
 |         /                                                          /       
 |        /                                                          /        
 |       /                                                          /         
 |      /                                                          /          
 |     /                                                          /           
 |    /                                                          /            
 |   /                                                          /             
 |  /                                                          /              
 | /                                                          /               
 |/                                                          /                
 *----------------------------------------------------------*                 

Positions:
   0 C     12.550147   10.257919    8.885035
   1 C     13.300115   13.633602    8.904719
   2 C      8.620549   14.268012    9.371677
   3 C     11.932057    7.779060    8.827631
   4 C     13.923200   12.405484    8.901791
   5 C     13.638063   11.093067    8.898762
   6 C      9.429915   13.266082    8.762376
   7 C      8.347199   12.890431    9.582620
   8 C     12.617664    8.904788    8.856514
   9 C      9.129803   11.877646    8.991288
  10 C     14.080308   14.813782    8.921727
  11 C     11.326348    5.289947    8.729178
  12 C     11.220936    6.661327    8.790969

Unit cell:
           periodic     x           y           z      points  spacing
  1. axis:    no    24.000000    0.000000    0.000000   120     0.2000
  2. axis:    no     0.000000   24.000000    0.000000   120     0.2000
  3. axis:    no     0.000000    0.000000   18.000000    88     0.2045

  Lengths:  24.000000  24.000000  18.000000
  Angles:   90.000000  90.000000  90.000000

Effective grid spacing dv^(1/3) = 0.2015

                     log10-error:    total        iterations:
           time      wfs    density  energy       fermi  poisson
iter:   1  10:19:43          +inf   -87.985047    2      6      
iter:   2  10:19:44         -0.86   -87.559965    3      3      
iter:   3  10:19:44         -0.89   -86.375644    29     4      
iter:   4  10:19:45         -1.07   -86.405336    2      1      
iter:   5  10:19:45         -1.06   -85.821350    5      3      
iter:   6  10:19:46         -1.39   -85.783443    2      1      
iter:   7  10:19:46         -1.42   -85.906526    3      3      
iter:   8  10:19:47         -1.39   -85.606116    3      3      
iter:   9  10:19:47         -1.88   -85.602849    3      2      
iter:  10  10:19:48         -1.94   -85.595668    3      2      
iter:  11  10:19:48         -2.02   -85.576174    2      2      
iter:  12  10:19:49         -2.11   -85.571504    3      3      
iter:  13  10:19:49         -2.39   -85.567182    2      2      
iter:  14  10:19:50         -2.59   -85.573855    2      1      
iter:  15  10:19:50         -2.86   -85.579207    2      1      
iter:  16  10:19:51         -2.91   -85.573007    2      1      
iter:  17  10:19:51         -2.99   -85.560603    2      1      
iter:  18  10:19:51         -3.14   -85.568811    2      1      
iter:  19  10:19:52         -3.25   -85.568975    2      1      
iter:  20  10:19:52         -3.29   -85.568490    2      1      
iter:  21  10:19:53         -3.39   -85.572217    2      1      
iter:  22  10:19:53         -3.42   -85.570330    2      1      
iter:  23  10:19:54         -3.46   -85.567271    2      1      
iter:  24  10:19:54         -3.58   -85.569316    2      1      
iter:  25  10:19:54         -3.64   -85.567463    2      1      
iter:  26  10:19:55         -3.83   -85.568391    2      1      
iter:  27  10:19:55         -3.98   -85.568600    2      1      
iter:  28  10:19:56         -4.23   -85.568610    2      1      

Converged after 28 iterations.

Dipole moment: (0.175244, 0.158132, 0.004406) |e|*Ang

Energy contributions relative to reference atoms: (reference = -13359.165501)

Kinetic:        +51.419754
Potential:      -58.683069
External:        +0.000000
XC:             -79.700690
Entropy (-ST):   -0.067048
Local:           +1.428919
--------------------------
Free energy:    -85.602134
Extrapolated:   -85.568610

Fermi level: -6.13187

 Band  Eigenvalues  Occupancy
    0    -26.79239    2.00000
    1    -21.85250    2.00000
    2    -21.20904    2.00000
    3    -20.28833    2.00000
    4    -19.34766    2.00000
    5    -19.09741    2.00000
    6    -17.77122    2.00000
    7    -15.90465    2.00000
    8    -14.80966    2.00000
    9    -13.59282    2.00000
   10    -13.48309    2.00000
   11    -12.09504    2.00000
   12    -10.41708    2.00000
   13    -10.32292    2.00000
   14    -10.27355    2.00000
   15    -10.01621    2.00000
   16     -9.54517    2.00000
   17     -9.53803    2.00000
   18     -8.84253    2.00000
   19     -8.24112    2.00000
   20     -8.03358    2.00000
   21     -7.58623    2.00000
   22     -6.97381    1.99956
   23     -6.86930    1.99875
   24     -6.74553    1.99568
   25     -6.47083    1.93475
   26     -5.78633    0.06122
   27     -5.60171    0.00992
   28     -5.16103    0.00012
   29     -4.19720    0.00000
   30     -3.28494    0.00000
   31     -3.09419    0.00000
   32     -2.95031    0.00000
   33     -2.51586    0.00000
   34     -1.27043    0.00000
   35     -1.24686    0.00000
   36     -0.42214    0.00000
   37     -0.24312    0.00000
   38      0.92595    0.00000
   39      2.51030    0.00000
   40      4.26207    0.00000
   41      4.36729    0.00000
   42      5.01505    0.00000
   43      5.62852    0.00000
   44      6.19965    0.00000
   45      6.51483    0.00000
   46      6.86814    0.00000
   47      7.11590    0.00000
   48      7.52002    0.00000
   49      8.10686    0.00000
   50      8.41668    0.00000
   51      8.48623    0.00000
   52      8.54818    0.00000
   53      8.83057    0.00000
   54      8.99378    0.00000
   55      9.06096    0.00000
   56      9.17570    0.00000
   57      9.66158    0.00000
   58      9.83007    0.00000
   59      9.85949    0.00000
   60      9.99292    0.00000
   61     10.30321    0.00000
   62     10.48071    0.00000
   63     10.49796    0.00000
   64     10.57944    0.00000
   65     10.71101    0.00000
   66     10.75303    0.00000
   67     11.02912    0.00000
   68     11.45369    0.00000
   69     11.73116    0.00000
   70     11.79046    0.00000
   71     11.92269    0.00000
   72     12.04255    0.00000
   73     12.11061    0.00000
   74     12.24614    0.00000
   75     12.45992    0.00000

Timing:                              incl.     excl.
-----------------------------------------------------------
Basic WFS set positions:             0.000     0.000   0.0% |
Basis functions set positions:       0.014     0.014   0.1% |
LCAO WFS Initialize:                 0.527     0.013   0.1% |
 Hamiltonian:                        0.514     0.000   0.0% |
  Atomic:                            0.000     0.000   0.0% |
   XC Correction:                    0.000     0.000   0.0% |
  Calculate atomic Hamiltonians:     0.000     0.000   0.0% |
  Communicate:                       0.043     0.043   0.3% |
  Hartree integrate/restrict:        0.007     0.007   0.1% |
  Initialize Hamiltonian:            0.002     0.002   0.0% |
  Poisson:                           0.298     0.298   2.2% ||
  XC 3D grid:                        0.162     0.162   1.2% |
  vbar:                              0.001     0.001   0.0% |
SCF-cycle:                          12.301     0.013   0.1% |
 Density:                            2.233     0.001   0.0% |
  Atomic density matrices:           1.957     1.957  14.7% |-----|
  Mix:                               0.255     0.255   1.9% ||
  Multipole moments:                 0.005     0.005   0.0% |
  Normalize:                         0.003     0.003   0.0% |
  Pseudo density:                    0.013     0.005   0.0% |
   Calculate density matrix:         0.007     0.007   0.1% |
   Construct density:                0.000     0.000   0.0% |
   Symmetrize density:               0.000     0.000   0.0% |
 Hamiltonian:                        8.002     0.003   0.0% |
  Atomic:                            0.006     0.006   0.0% |
   XC Correction:                    0.000     0.000   0.0% |
  Calculate atomic Hamiltonians:     0.008     0.008   0.1% |
  Communicate:                       1.142     1.142   8.6% |--|
  Hartree integrate/restrict:        0.186     0.186   1.4% ||
  Poisson:                           2.239     2.239  16.8% |------|
  XC 3D grid:                        4.370     4.370  32.8% |------------|
  vbar:                              0.050     0.050   0.4% |
 LCAO eigensolver:                   2.053     0.002   0.0% |
  Calculate projections:             0.000     0.000   0.0% |
  DenseAtomicCorrection:             0.001     0.001   0.0% |
  Distribute overlap matrix:         1.873     1.873  14.1% |-----|
  Orbital Layouts:                   0.175     0.175   1.3% ||
  Potential matrix:                  0.003     0.003   0.0% |
Set symmetry:                        0.093     0.093   0.7% |
TCI: Calculate S, T, P:              0.003     0.003   0.0% |
TCI: Evaluate splines:               0.061     0.061   0.5% |
Other:                               0.306     0.306   2.3% ||
-----------------------------------------------------------
Total:                                        13.305 100.0%

Memory usage: 217.71 MiB
Date: Fri Mar 23 10:19:56 2018
