
  ___ ___ ___ _ _ _  
 |   |   |_  | | | | 
 | | | | | . | | | | 
 |__ |  _|___|_____|  1.3.1b1
 |___|_|             

User:   mkb@s91n12.grendel.cscaa.dk
Date:   Fri Mar 23 09:45:53 2018
Arch:   x86_64
Pid:    423519
Python: 2.7.13
gpaw:   /home/mkb/gpaw/gpaw
_gpaw:  /home/mkb/gpaw/build/bin.linux-x86_64-2.7/gpaw-python
ase:    /home/mkb/ase/ase (version 3.15.1b1)
numpy:  /comm/swstack/core/python/2.7.13/lib/python2.7/site-packages/numpy (version 1.13.3)
scipy:  /comm/swstack/core/python/2.7.13/lib/python2.7/site-packages/scipy (version 0.19.1)
units:  Angstrom and eV
cores:  36
Extra parameters: {'blacs': True}

Input parameters:
  basis: dzp
  gpts: [120 120  88]
  kpts: [1 1 1]
  maxiter: 99
  mixer: {backend: pulay,
          beta: 0.05,
          method: separate,
          nmaxold: 5,
          weight: 75}
  mode: lcao
  nbands: -50
  occupations: {name: fermi-dirac,
                width: 0.1}
  poissonsolver: {eps: 1e-07,
                  name: fd,
                  nn: 3,
                  relax: GS}
  xc: PBE

System changes: positions, numbers, cell, pbc, initial_charges, initial_magmoms 

Initialize ...

C-setup:
  name: Carbon
  id: 4aa54d4b901d75f77cc0ea3eec22967b
  Z: 6
  valence: 4
  core: 2
  charge: 0.0
  file: /home/esb/DFT/gpaw-setups-0.8.7929/C.PBE.gz
  cutoffs: 0.64(comp), 1.14(filt), 1.14(core), lmax=2
  valence states:
                energy  radius
    2s(2.00)   -13.751   0.635
    2p(2.00)    -5.284   0.635
    *s          13.461   0.635
    *p          21.927   0.635
    *d           0.000   0.635

  LCAO basis set for C:
    Name: dzp
    File: /home/esb/DFT/gpaw-setups-0.8.7929/C.dzp.basis.gz
    Number of radial functions: 5
    Number of spherical harmonics: 13
      l=0, rc=5.5469 Bohr: 2s-sz confined orbital
      l=1, rc=6.6719 Bohr: 2p-sz confined orbital
      l=0, rc=3.0312 Bohr: 2s-dz split-valence wave
      l=1, rc=3.7500 Bohr: 2p-dz split-valence wave
      l=2, rc=6.6719 Bohr: d-type Gaussian polarization

Reference energy: -13359.165501

Spin-paired calculation

Occupation numbers:
  Fermi-Dirac: width=0.1000 eV

Convergence criteria:
  Maximum total energy change: 0.0005 eV / electron
  Maximum integral of absolute density change: 0.0001 electrons
  Maximum integral of absolute eigenstate change: 4e-08 eV^2
  Maximum number of iterations: 99

Symmetries present (total): 1

  ( 1  0  0)
  ( 0  1  0)
  ( 0  0  1)

1 k-point (Gamma)
1 k-point in the irreducible part of the Brillouin zone
       k-points in crystal coordinates                weights
   0:     0.00000000    0.00000000    0.00000000          1/1

Wave functions: LCAO
  Diagonalizer: Serial LAPACK
  Atomic Correction: dense with blas
  Datatype: float
  Eigensolver: None 

LCAO using direct dense diagonalizer 

Densities:
  Coarse grid: 120*120*88 grid
  Fine grid: 240*240*176 grid
  Total Charge: 0.000000 

Density mixing:
  Method: separate
  Backend: pulay
  Linear mixing parameter: 0.05
  Mixing with 5 old densities
  Damping of long wave oscillations: 75 

Hamiltonian:
  XC and Coulomb potentials evaluated on a 240*240*176 grid
  Using the PBE Exchange-Correlation functional
  Interpolation: tri-quintic (5. degree polynomial)
  Poisson solver: Gauss-Seidel solver with 5 multi-grid levels
    Coarsest grid: 15 x 15 x 11 points
    Stencil: 6*3+1=19 point O(h^6) finite-difference Laplacian
    Max iterations: 1000
    Tolerance: 1.000000e-07 

Memory estimate:
  Process memory now: 159.71 MiB
  Calculator: 19.91 MiB
    Density: 9.40 MiB
      Arrays: 6.69 MiB
      Localized functions: 0.21 MiB
      Mixer: 2.50 MiB
    Hamiltonian: 9.40 MiB
      Arrays: 4.38 MiB
      XC: 0.00 MiB
      Poisson: 5.01 MiB
      vbar: 0.02 MiB
    Wavefunctions: 1.11 MiB
      C [qnM]: 0.10 MiB
      S, T [2 x qmm]: 0.44 MiB
      P [aqMi]: 0.00 MiB
      TCI: 0.00 MiB
      BasisFunctions: 0.57 MiB
      Eigensolver: 0.00 MiB

Total number of cores used: 36
Domain decomposition: 3 x 4 x 3

Number of atoms: 13
Number of atomic orbitals: 169
Number of bands in calculation: 76
Bands to converge: occupied states only
Number of valence electrons: 52

... initialized

Initializing position-dependent things.

Density initialized from atomic densities
                .----------------------------------------------------------.  
               /|                                                          |  
              / |                                                          |  
             /  |                                                          |  
            /   |                                                          |  
           /    |                                                          |  
          /     |                                                          |  
         /      |                                                          |  
        /       |                                                          |  
       /        |                                                          |  
      /         |                                                          |  
     /          |                                                          |  
    /           |                                                          |  
   /            |                                                          |  
  /             |                                                          |  
 *              |                                                          |  
 |              |                                                          |  
 |              |                          C                               |  
 |              |            C  C           C                              |  
 |              |            C C         CC                                |  
 |              |                       C                                  |  
 |              |                   C                                      |  
 |              .-----------------C----------------------------------------.  
 |             /                C                                         /   
 |            /                                                          /    
 |           /                                                          /     
 |          /                                                          /      
 |         /                                                          /       
 |        /                                                          /        
 |       /                                                          /         
 |      /                                                          /          
 |     /                                                          /           
 |    /                                                          /            
 |   /                                                          /             
 |  /                                                          /              
 | /                                                          /               
 |/                                                          /                
 *----------------------------------------------------------*                 

Positions:
   0 C     13.342217   10.824994    8.915257
   1 C     13.567603   14.115399    8.872333
   2 C      8.262245   12.903947    9.297748
   3 C     12.246425    8.161967    8.916303
   4 C     14.095072   12.854213    8.880869
   5 C     13.410031   12.121903    8.898130
   6 C      8.416698   11.538377    8.750682
   7 C      9.562465   12.230042    9.502695
   8 C     13.445739    9.025341    8.935995
   9 C      9.497318   11.281214    9.081639
  10 C     13.370246   15.062755    8.893051
  11 C     11.329616    5.705473    8.735318
  12 C     11.816477    6.923444    8.868456

Unit cell:
           periodic     x           y           z      points  spacing
  1. axis:    no    24.000000    0.000000    0.000000   120     0.2000
  2. axis:    no     0.000000   24.000000    0.000000   120     0.2000
  3. axis:    no     0.000000    0.000000   18.000000    88     0.2045

  Lengths:  24.000000  24.000000  18.000000
  Angles:   90.000000  90.000000  90.000000

Effective grid spacing dv^(1/3) = 0.2015

                     log10-error:    total        iterations:
           time      wfs    density  energy       fermi  poisson
iter:   1  09:45:54          +inf   -70.148373    2      6      
iter:   2  09:45:55         -0.76   -67.534186    4      3      
iter:   3  09:45:55         -0.78   -62.819743    3      3      
iter:   4  09:45:56         -0.89   -62.290805    4      3      
iter:   5  09:45:56         -0.88   -63.227904    4      2      
iter:   6  09:45:57         -0.86   -60.993441    31     3      
iter:   7  09:45:57         -1.01   -63.213624    36     3      
iter:   8  09:45:58         -1.11   -62.688046    3      3      
iter:   9  09:45:58         -1.13   -60.810945    34     3      
iter:  10  09:45:59         -1.24   -61.313433    35     3      
iter:  11  09:45:59         -1.09   -59.910310    31     3      
iter:  12  09:46:00         -1.41   -59.802349    3      2      
iter:  13  09:46:00         -1.47   -59.807620    4      2      
iter:  14  09:46:01         -1.48   -59.678719    3      2      
iter:  15  09:46:01         -1.49   -59.755215    3      3      
iter:  16  09:46:02         -1.59   -59.789844    3      2      
iter:  17  09:46:02         -1.59   -59.632597    3      2      
iter:  18  09:46:03         -1.86   -59.742862    3      2      
iter:  19  09:46:03         -1.43   -59.618956    3      2      
iter:  20  09:46:04         -2.00   -59.599579    2      2      
iter:  21  09:46:04         -2.42   -59.592004    2      2      
iter:  22  09:46:05         -2.43   -59.597256    2      1      
iter:  23  09:46:05         -2.65   -59.601288    2      1      
iter:  24  09:46:06         -2.73   -59.595701    2      1      
iter:  25  09:46:06         -2.71   -59.593597    2      2      
iter:  26  09:46:07         -2.88   -59.599278    2      1      
iter:  27  09:46:07         -3.29   -59.602168    2      1      
iter:  28  09:46:07         -3.32   -59.596050    2      1      
iter:  29  09:46:08         -3.71   -59.595021    2      1      
iter:  30  09:46:08         -3.76   -59.594596    1      1      
iter:  31  09:46:09         -3.75   -59.593350    2      1      
iter:  32  09:46:09         -3.40   -59.594001    2      1      
iter:  33  09:46:10         -4.14   -59.594630    1      1      

Converged after 33 iterations.

Dipole moment: (-0.183255, -0.032184, 0.051111) |e|*Ang

Energy contributions relative to reference atoms: (reference = -13359.165501)

Kinetic:       +205.235244
Potential:     -163.506004
External:        +0.000000
XC:            -102.704753
Entropy (-ST):   -0.495591
Local:           +1.628678
--------------------------
Free energy:    -59.842425
Extrapolated:   -59.594630

Fermi level: -5.96302

 Band  Eigenvalues  Occupancy
    0    -29.54408    2.00000
    1    -23.78430    2.00000
    2    -20.82071    2.00000
    3    -20.33311    2.00000
    4    -19.05409    2.00000
    5    -19.02503    2.00000
    6    -18.32481    2.00000
    7    -17.42647    2.00000
    8    -16.21222    2.00000
    9    -14.37861    2.00000
   10    -14.33073    2.00000
   11    -12.45195    2.00000
   12    -12.14845    2.00000
   13    -11.87032    2.00000
   14    -11.77274    2.00000
   15    -11.46065    2.00000
   16     -9.44945    2.00000
   17     -9.34101    2.00000
   18     -8.53089    2.00000
   19     -7.88946    2.00000
   20     -7.66829    2.00000
   21     -7.42868    2.00000
   22     -7.11494    1.99998
   23     -6.79957    1.99953
   24     -6.07261    1.49899
   25     -5.99283    1.14799
   26     -5.94628    0.91651
   27     -5.83400    0.43164
   28     -5.36256    0.00492
   29     -5.11059    0.00040
   30     -4.88179    0.00004
   31     -3.50855    0.00000
   32     -3.01650    0.00000
   33     -1.95234    0.00000
   34     -0.83298    0.00000
   35      0.28016    0.00000
   36      1.31171    0.00000
   37      1.87539    0.00000
   38      2.06901    0.00000
   39      2.92664    0.00000
   40      3.28994    0.00000
   41      4.70983    0.00000
   42      4.89853    0.00000
   43      5.20185    0.00000
   44      5.45300    0.00000
   45      6.48251    0.00000
   46      7.09063    0.00000
   47      7.23338    0.00000
   48      7.71053    0.00000
   49      7.87506    0.00000
   50      8.10107    0.00000
   51      8.35509    0.00000
   52      8.44279    0.00000
   53      8.87632    0.00000
   54      8.94072    0.00000
   55      9.07729    0.00000
   56      9.22227    0.00000
   57      9.52156    0.00000
   58      9.53605    0.00000
   59      9.69096    0.00000
   60      9.87306    0.00000
   61     10.06151    0.00000
   62     10.21474    0.00000
   63     10.31543    0.00000
   64     10.67891    0.00000
   65     10.75702    0.00000
   66     10.85658    0.00000
   67     11.54144    0.00000
   68     11.80698    0.00000
   69     12.11980    0.00000
   70     12.39723    0.00000
   71     12.63415    0.00000
   72     12.87791    0.00000
   73     12.98751    0.00000
   74     13.40096    0.00000
   75     13.65093    0.00000


Forces in eV/Ang:
  0 C    -2.06532  -10.21412    0.12733
  1 C    14.90860  -52.30020   -1.20767
  2 C    -4.59526    3.46268   -0.19363
  3 C     4.77336    3.09874    0.03269
  4 C    28.30495   37.82112   -0.86871
  5 C   -28.46062  -39.64340    0.84749
  6 C   -20.73933    6.61654   -5.76366
  7 C     3.78816   35.31694   16.04727
  8 C    -4.29681    4.48975   -0.10625
  9 C    21.68268  -45.35500  -10.10183
 10 C   -12.73931   56.94229    1.18526
 11 C    -0.12241   -0.15077    0.00750
 12 C    -0.44471   -0.08533   -0.03212

System changes: positions 

Initializing position-dependent things.

Density initialized from wave functions
                .----------------------------------------------------------.  
               /|                                                          |  
              / |                                                          |  
             /  |                                                          |  
            /   |                                                          |  
           /    |                                                          |  
          /     |                                                          |  
         /      |                                                          |  
        /       |                                                          |  
       /        |                                                          |  
      /         |                                                          |  
     /          |                                                          |  
    /           |                                                          |  
   /            |                                                          |  
  /             |                                                          |  
 *              |                                                          |  
 |              |                                                          |  
 |              |                          C                               |  
 |              |            C  C           C                              |  
 |              |            C C         C                                 |  
 |              |                       C                                  |  
 |              |                   C                                      |  
 |              .-----------------C----------------------------------------.  
 |             /                C                                         /   
 |            /                                                          /    
 |           /                                                          /     
 |          /                                                          /      
 |         /                                                          /       
 |        /                                                          /        
 |       /                                                          /         
 |      /                                                          /          
 |     /                                                          /           
 |    /                                                          /            
 |   /                                                          /             
 |  /                                                          /              
 | /                                                          /               
 |/                                                          /                
 *----------------------------------------------------------*                 

Positions:
   0 C     13.340801   10.817993    8.915345
   1 C     13.577821   14.079553    8.871505
   2 C      8.259095   12.906321    9.297615
   3 C     12.249696    8.164091    8.916325
   4 C     14.114472   12.880135    8.880273
   5 C     13.390525   12.094733    8.898711
   6 C      8.402484   11.542912    8.746731
   7 C      9.565062   12.254248    9.513693
   8 C     13.442795    9.028419    8.935922
   9 C      9.512179   11.250128    9.074715
  10 C     13.361515   15.101782    8.893864
  11 C     11.329532    5.705370    8.735323
  12 C     11.816172    6.923386    8.868434

Unit cell:
           periodic     x           y           z      points  spacing
  1. axis:    no    24.000000    0.000000    0.000000   120     0.2000
  2. axis:    no     0.000000   24.000000    0.000000   120     0.2000
  3. axis:    no     0.000000    0.000000   18.000000    88     0.2045

  Lengths:  24.000000  24.000000  18.000000
  Angles:   90.000000  90.000000  90.000000

Effective grid spacing dv^(1/3) = 0.2015

                     log10-error:    total        iterations:
           time      wfs    density  energy       fermi  poisson
iter:   1  09:46:11          +inf   -68.884141    3      5      
iter:   2  09:46:11         -1.37   -68.677105    2      2      
iter:   3  09:46:12         -1.50   -68.496456    3      2      
iter:   4  09:46:12         -1.69   -68.503916    3      2      
iter:   5  09:46:13         -1.76   -68.546894    3      2      
iter:   6  09:46:13         -1.67   -68.427642    3      2      
iter:   7  09:46:14         -1.91   -68.415511    3      2      
iter:   8  09:46:14         -2.21   -68.408435    2      1      
iter:   9  09:46:14         -2.28   -68.406356    2      2      
iter:  10  09:46:15         -2.32   -68.400929    2      2      
iter:  11  09:46:15         -2.58   -68.401817    2      2      
iter:  12  09:46:16         -2.62   -68.403574    2      1      
iter:  13  09:46:16         -2.81   -68.400437    2      2      
iter:  14  09:46:17         -2.85   -68.400045    2      1      
iter:  15  09:46:17         -3.16   -68.400900    2      2      
iter:  16  09:46:18         -3.33   -68.400538    2      1      
iter:  17  09:46:18         -3.36   -68.400475    2      1      
iter:  18  09:46:19         -3.51   -68.399146    2      1      
iter:  19  09:46:19         -3.64   -68.400534    2      1      
iter:  20  09:46:19         -3.71   -68.400853    1      1      
iter:  21  09:46:20         -3.78   -68.399379    2      1      
iter:  22  09:46:20         -3.86   -68.400685    2      1      
iter:  23  09:46:21         -3.84   -68.400976    2      1      
iter:  24  09:46:21         -4.04   -68.400318    1      1      

Converged after 24 iterations.

Dipole moment: (-0.199853, 0.110386, 0.050067) |e|*Ang

Energy contributions relative to reference atoms: (reference = -13359.165501)

Kinetic:       +165.547329
Potential:     -138.076815
External:        +0.000000
XC:             -97.140018
Entropy (-ST):   -0.468394
Local:           +1.503383
--------------------------
Free energy:    -68.634516
Extrapolated:   -68.400318

Fermi level: -6.09536

 Band  Eigenvalues  Occupancy
    0    -29.09369    2.00000
    1    -23.81378    2.00000
    2    -20.71615    2.00000
    3    -20.49558    2.00000
    4    -19.09226    2.00000
    5    -19.04701    2.00000
    6    -18.24885    2.00000
    7    -17.12676    2.00000
    8    -16.13065    2.00000
    9    -14.60721    2.00000
   10    -13.95853    2.00000
   11    -12.41578    2.00000
   12    -12.25380    2.00000
   13    -11.70885    2.00000
   14    -11.59132    2.00000
   15    -11.43595    2.00000
   16     -9.34273    2.00000
   17     -9.22207    2.00000
   18     -8.41806    2.00000
   19     -7.79990    2.00000
   20     -7.74822    2.00000
   21     -7.28718    1.99999
   22     -6.99844    1.99976
   23     -6.63256    1.99075
   24     -6.23711    1.60989
   25     -6.14658    1.25060
   26     -6.04828    0.76884
   27     -5.95010    0.37920
   28     -5.27972    0.00057
   29     -5.24057    0.00039
   30     -4.76575    0.00000
   31     -3.65225    0.00000
   32     -2.93914    0.00000
   33     -2.00342    0.00000
   34     -0.71471    0.00000
   35      0.39901    0.00000
   36      0.85230    0.00000
   37      1.52721    0.00000
   38      1.84273    0.00000
   39      2.31765    0.00000
   40      3.06141    0.00000
   41      4.04940    0.00000
   42      4.87292    0.00000
   43      5.15279    0.00000
   44      5.57311    0.00000
   45      6.57559    0.00000
   46      7.13949    0.00000
   47      7.16591    0.00000
   48      7.69141    0.00000
   49      7.95969    0.00000
   50      8.21003    0.00000
   51      8.32556    0.00000
   52      8.39682    0.00000
   53      8.94231    0.00000
   54      9.03058    0.00000
   55      9.06034    0.00000
   56      9.27273    0.00000
   57      9.45664    0.00000
   58      9.58321    0.00000
   59      9.73452    0.00000
   60      9.91505    0.00000
   61      9.97899    0.00000
   62     10.12844    0.00000
   63     10.19972    0.00000
   64     10.73726    0.00000
   65     10.79919    0.00000
   66     10.87068    0.00000
   67     11.46430    0.00000
   68     11.74943    0.00000
   69     11.98560    0.00000
   70     12.30275    0.00000
   71     12.56998    0.00000
   72     12.77142    0.00000
   73     12.95007    0.00000
   74     13.25405    0.00000
   75     13.58021    0.00000


Forces in eV/Ang:
  0 C    -1.88510  -10.77691    0.13102
  1 C     9.33236  -27.01102   -0.74524
  2 C    -3.95880    3.37818    0.01882
  3 C     4.87022    2.99899    0.02691
  4 C    17.28534   22.89361   -0.57107
  5 C   -16.77527  -26.46100    0.54981
  6 C   -15.79808    5.85309   -4.06709
  7 C     1.68513   24.73438   10.81284
  8 C    -4.43775    4.34698   -0.10150
  9 C    18.17571  -33.96224   -6.76971
 10 C    -7.94182   34.10996    0.69977
 11 C    -0.09012   -0.08932    0.01612
 12 C    -0.47647   -0.00325   -0.03538

System changes: positions 

Initializing position-dependent things.

Density initialized from wave functions
                .----------------------------------------------------------.  
               /|                                                          |  
              / |                                                          |  
             /  |                                                          |  
            /   |                                                          |  
           /    |                                                          |  
          /     |                                                          |  
         /      |                                                          |  
        /       |                                                          |  
       /        |                                                          |  
      /         |                                                          |  
     /          |                                                          |  
    /           |                                                          |  
   /            |                                                          |  
  /             |                                                          |  
 *              |                                                          |  
 |              |                                                          |  
 |              |                          C                               |  
 |              |            C  C           C                              |  
 |              |            C C         C                                 |  
 |              |                       C                                  |  
 |              |                   C                                      |  
 |              .-----------------C----------------------------------------.  
 |             /                C                                         /   
 |            /                                                          /    
 |           /                                                          /     
 |          /                                                          /      
 |         /                                                          /       
 |        /                                                          /        
 |       /                                                          /         
 |      /                                                          /          
 |     /                                                          /           
 |    /                                                          /            
 |   /                                                          /             
 |  /                                                          /              
 | /                                                          /               
 |/                                                          /                
 *----------------------------------------------------------*                 

Positions:
   0 C     13.337886   10.797324    8.915588
   1 C     13.580476   14.094869    8.871336
   2 C      8.253622   12.912144    9.298183
   3 C     12.258641    8.169198    8.916359
   4 C     14.117652   12.883512    8.880001
   5 C     13.389929   12.080595    8.898945
   6 C      8.386680   11.551450    8.743730
   7 C      9.562785   12.271836    9.519853
   8 C     13.434511    9.035826    8.935753
   9 C      9.535837   11.218090    9.070997
  10 C     13.359386   15.105326    8.893893
  11 C     11.329452    5.705365    8.735374
  12 C     11.815241    6.923586    8.868363

Unit cell:
           periodic     x           y           z      points  spacing
  1. axis:    no    24.000000    0.000000    0.000000   120     0.2000
  2. axis:    no     0.000000   24.000000    0.000000   120     0.2000
  3. axis:    no     0.000000    0.000000   18.000000    88     0.2045

  Lengths:  24.000000  24.000000  18.000000
  Angles:   90.000000  90.000000  90.000000

Effective grid spacing dv^(1/3) = 0.2015

                     log10-error:    total        iterations:
           time      wfs    density  energy       fermi  poisson
iter:   1  09:46:22          +inf   -71.379283    3      5      
iter:   2  09:46:23         -1.42   -71.319611    2      2      
iter:   3  09:46:23         -1.55   -71.185268    2      2      
iter:   4  09:46:24         -1.72   -71.129068    3      2      
iter:   5  09:46:24         -1.83   -71.119250    2      2      
iter:   6  09:46:25         -1.92   -71.086585    2      2      
iter:   7  09:46:25         -2.24   -71.100093    2      2      
iter:   8  09:46:26         -2.07   -71.077299    2      2      
iter:   9  09:46:26         -2.52   -71.073817    2      2      
iter:  10  09:46:26         -2.64   -71.075471    2      1      
iter:  11  09:46:27         -2.72   -71.072179    2      2      
iter:  12  09:46:27         -2.95   -71.070900    2      1      
iter:  13  09:46:28         -3.00   -71.072084    2      2      
iter:  14  09:46:28         -3.13   -71.072811    2      1      
iter:  15  09:46:29         -3.36   -71.072807    2      1      
iter:  16  09:46:29         -3.50   -71.072013    2      1      
iter:  17  09:46:30         -3.68   -71.072128    2      1      
iter:  18  09:46:30         -3.84   -71.072304    1      1      
iter:  19  09:46:30         -3.96   -71.072426    2      1      
iter:  20  09:46:31         -4.00   -71.072656    2      1      
iter:  21  09:46:31         -4.08   -71.072385    2      1      

Converged after 21 iterations.

Dipole moment: (-0.157311, 0.127556, 0.048486) |e|*Ang

Energy contributions relative to reference atoms: (reference = -13359.165501)

Kinetic:       +150.046004
Potential:     -127.518507
External:        +0.000000
XC:             -94.902619
Entropy (-ST):   -0.444396
Local:           +1.524935
--------------------------
Free energy:    -71.294583
Extrapolated:   -71.072385

Fermi level: -6.13924

 Band  Eigenvalues  Occupancy
    0    -28.48454    2.00000
    1    -23.66223    2.00000
    2    -20.74116    2.00000
    3    -20.48928    2.00000
    4    -19.08801    2.00000
    5    -19.04439    2.00000
    6    -18.31758    2.00000
    7    -16.61655    2.00000
    8    -16.19298    2.00000
    9    -14.58736    2.00000
   10    -13.48977    2.00000
   11    -12.58724    2.00000
   12    -12.15223    2.00000
   13    -11.59462    2.00000
   14    -11.49954    2.00000
   15    -11.05709    2.00000
   16     -9.37768    2.00000
   17     -9.26288    2.00000
   18     -8.47111    2.00000
   19     -7.83962    2.00000
   20     -7.79886    2.00000
   21     -7.32465    1.99999
   22     -7.01886    1.99970
   23     -6.71730    1.99385
   24     -6.27496    1.59058
   25     -6.22918    1.42162
   26     -6.06667    0.65227
   27     -5.98118    0.34142
   28     -5.28877    0.00040
   29     -5.20357    0.00017
   30     -4.74269    0.00000
   31     -3.52537    0.00000
   32     -2.93209    0.00000
   33     -2.02244    0.00000
   34     -0.53861    0.00000
   35      0.39980    0.00000
   36      0.77399    0.00000
   37      1.13683    0.00000
   38      1.80965    0.00000
   39      2.39267    0.00000
   40      3.08266    0.00000
   41      4.07644    0.00000
   42      4.87842    0.00000
   43      5.21729    0.00000
   44      5.58876    0.00000
   45      6.66978    0.00000
   46      7.14842    0.00000
   47      7.23426    0.00000
   48      7.67722    0.00000
   49      7.97408    0.00000
   50      8.22801    0.00000
   51      8.35317    0.00000
   52      8.39364    0.00000
   53      8.90634    0.00000
   54      9.00506    0.00000
   55      9.07295    0.00000
   56      9.27339    0.00000
   57      9.41203    0.00000
   58      9.57074    0.00000
   59      9.76161    0.00000
   60      9.92739    0.00000
   61      9.96290    0.00000
   62     10.12433    0.00000
   63     10.17796    0.00000
   64     10.69263    0.00000
   65     10.76076    0.00000
   66     10.82358    0.00000
   67     11.33966    0.00000
   68     11.74363    0.00000
   69     11.89459    0.00000
   70     12.17576    0.00000
   71     12.52010    0.00000
   72     12.71798    0.00000
   73     12.94327    0.00000
   74     13.08348    0.00000
   75     13.39878    0.00000


Forces in eV/Ang:
  0 C    -1.73004  -10.45221    0.12018
  1 C    10.24122  -30.36128   -0.82602
  2 C    -3.20189    3.04584    0.14846
  3 C     4.57009    2.42730    0.00802
  4 C    14.70018   20.84295   -0.52117
  5 C   -14.43404  -24.15706    0.49638
  6 C   -10.83127    4.68475   -2.54141
  7 C     0.14082   18.12133    7.46860
  8 C    -4.34917    4.68788   -0.09544
  9 C    13.98833  -25.87962   -5.10316
 10 C    -8.72652   36.65655    0.76705
 11 C    -0.07663   -0.06684    0.01659
 12 C    -0.32386    0.43522   -0.01736

System changes: positions 

Initializing position-dependent things.

Density initialized from wave functions
                .----------------------------------------------------------.  
               /|                                                          |  
              / |                                                          |  
             /  |                                                          |  
            /   |                                                          |  
           /    |                                                          |  
          /     |                                                          |  
         /      |                                                          |  
        /       |                                                          |  
       /        |                                                          |  
      /         |                                                          |  
     /          |                                                          |  
    /           |                                                          |  
   /            |                                                          |  
  /             |                                                          |  
 *              |                                                          |  
 |              |                                                          |  
 |              |                          C                               |  
 |              |            C  C           C                              |  
 |              |            C  C        C                                 |  
 |              |                       C                                  |  
 |              |                   C                                      |  
 |              .-----------------C----------------------------------------.  
 |             /                C                                         /   
 |            /                                                          /    
 |           /                                                          /     
 |          /                                                          /      
 |         /                                                          /       
 |        /                                                          /        
 |       /                                                          /         
 |      /                                                          /          
 |     /                                                          /           
 |    /                                                          /            
 |   /                                                          /             
 |  /                                                          /              
 | /                                                          /               
 |/                                                          /                
 *----------------------------------------------------------*                 

Positions:
   0 C     13.332824   10.757648    8.916015
   1 C     13.593822   14.094366    8.870301
   2 C      8.246758   12.921997    9.300009
   3 C     12.274927    8.176181    8.916317
   4 C     14.113715   12.884943    8.879612
   5 C     13.397345   12.059674    8.899236
   6 C      8.382024   11.562128    8.745972
   7 C      9.549927   12.272867    9.514782
   8 C     13.418325    9.052929    8.935443
   9 C      9.560394   11.196180    9.071879
  10 C     13.348204   15.138119    8.894577
  11 C     11.329356    5.705460    8.735475
  12 C     11.814280    6.926569    8.868327

Unit cell:
           periodic     x           y           z      points  spacing
  1. axis:    no    24.000000    0.000000    0.000000   120     0.2000
  2. axis:    no     0.000000   24.000000    0.000000   120     0.2000
  3. axis:    no     0.000000    0.000000   18.000000    88     0.2045

  Lengths:  24.000000  24.000000  18.000000
  Angles:   90.000000  90.000000  90.000000

Effective grid spacing dv^(1/3) = 0.2015

                     log10-error:    total        iterations:
           time      wfs    density  energy       fermi  poisson
iter:   1  09:46:32          +inf   -74.787121    4      5      
iter:   2  09:46:33         -1.46   -74.524435    3      2      
iter:   3  09:46:33         -1.65   -74.400262    3      2      
iter:   4  09:46:34         -1.87   -74.383560    2      2      
iter:   5  09:46:34         -1.97   -74.397228    3      2      
iter:   6  09:46:35         -1.99   -74.390395    2      1      
iter:   7  09:46:35         -2.02   -74.390253    3      2      
iter:   8  09:46:36         -1.66   -74.378716    3      2      
iter:   9  09:46:36         -2.14   -74.360018    2      2      
iter:  10  09:46:37         -2.47   -74.351760    2      2      
iter:  11  09:46:37         -2.73   -74.354583    2      1      
iter:  12  09:46:37         -2.72   -74.351639    2      1      
iter:  13  09:46:38         -2.83   -74.349934    2      1      
iter:  14  09:46:38         -2.96   -74.351483    2      1      
iter:  15  09:46:39         -3.11   -74.352298    2      1      
iter:  16  09:46:39         -3.29   -74.350385    2      1      
iter:  17  09:46:40         -3.44   -74.350856    2      1      
iter:  18  09:46:40         -3.43   -74.350681    2      1      
iter:  19  09:46:41         -3.63   -74.350532    2      1      
iter:  20  09:46:41         -3.65   -74.350772    2      1      
iter:  21  09:46:41         -3.94   -74.350779    2      1      
iter:  22  09:46:42         -4.06   -74.350955    2      1      

Converged after 22 iterations.

Dipole moment: (-0.051187, 0.077662, 0.046423) |e|*Ang

Energy contributions relative to reference atoms: (reference = -13359.165501)

Kinetic:       +133.262686
Potential:     -116.157475
External:        +0.000000
XC:             -92.742954
Entropy (-ST):   -0.399952
Local:           +1.486764
--------------------------
Free energy:    -74.550931
Extrapolated:   -74.350955

Fermi level: -6.16126

 Band  Eigenvalues  Occupancy
    0    -28.18168    2.00000
    1    -23.59735    2.00000
    2    -20.81227    2.00000
    3    -20.45643    2.00000
    4    -19.13845    2.00000
    5    -19.10749    2.00000
    6    -18.40718    2.00000
    7    -16.33126    2.00000
    8    -16.14510    2.00000
    9    -14.80395    2.00000
   10    -13.23867    2.00000
   11    -12.91470    2.00000
   12    -11.96189    2.00000
   13    -11.54528    2.00000
   14    -11.50620    2.00000
   15    -10.79373    2.00000
   16     -9.46433    2.00000
   17     -9.35136    2.00000
   18     -8.40835    2.00000
   19     -7.88214    2.00000
   20     -7.73576    2.00000
   21     -7.33073    1.99998
   22     -7.07016    1.99977
   23     -6.83355    1.99760
   24     -6.31826    1.65557
   25     -6.28009    1.53287
   26     -6.06104    0.53700
   27     -5.97833    0.27664
   28     -5.34194    0.00055
   29     -4.97522    0.00001
   30     -4.68738    0.00000
   31     -3.15196    0.00000
   32     -2.92358    0.00000
   33     -2.03140    0.00000
   34     -0.14030    0.00000
   35      0.38878    0.00000
   36      0.49578    0.00000
   37      0.95414    0.00000
   38      1.73409    0.00000
   39      2.09324    0.00000
   40      3.20166    0.00000
   41      3.88600    0.00000
   42      4.95918    0.00000
   43      5.27963    0.00000
   44      5.58903    0.00000
   45      6.72234    0.00000
   46      7.09803    0.00000
   47      7.31706    0.00000
   48      7.66341    0.00000
   49      7.96236    0.00000
   50      8.12438    0.00000
   51      8.40182    0.00000
   52      8.45712    0.00000
   53      8.83931    0.00000
   54      8.96274    0.00000
   55      9.19615    0.00000
   56      9.23359    0.00000
   57      9.36222    0.00000
   58      9.53582    0.00000
   59      9.77101    0.00000
   60      9.93114    0.00000
   61      9.96520    0.00000
   62     10.06660    0.00000
   63     10.15401    0.00000
   64     10.63780    0.00000
   65     10.72044    0.00000
   66     10.78421    0.00000
   67     11.21573    0.00000
   68     11.75180    0.00000
   69     11.84240    0.00000
   70     12.14542    0.00000
   71     12.48477    0.00000
   72     12.70282    0.00000
   73     12.89490    0.00000
   74     12.93145    0.00000
   75     13.35517    0.00000


Forces in eV/Ang:
  0 C    -1.40773   -9.31709    0.11788
  1 C     8.53141  -21.56012   -0.65056
  2 C    -2.58179    2.72922    0.22883
  3 C     4.13702    1.65498   -0.01690
  4 C    12.93958   19.31527   -0.48436
  5 C   -12.87055  -24.12323    0.48876
  6 C    -8.09019    3.61301   -1.86379
  7 C    -0.65234   16.35872    6.46178
  8 C    -4.19478    5.21255   -0.09810
  9 C    11.40376  -22.74688   -4.87288
 10 C    -7.06076   27.72186    0.60123
 11 C    -0.01093    0.09362    0.03156
 12 C    -0.17395    0.82819   -0.00817

System changes: positions 

Initializing position-dependent things.

Density initialized from wave functions
                .----------------------------------------------------------.  
               /|                                                          |  
              / |                                                          |  
             /  |                                                          |  
            /   |                                                          |  
           /    |                                                          |  
          /     |                                                          |  
         /      |                                                          |  
        /       |                                                          |  
       /        |                                                          |  
      /         |                                                          |  
     /          |                                                          |  
    /           |                                                          |  
   /            |                                                          |  
  /             |                                                          |  
 *              |                                                          |  
 |              |                                                          |  
 |              |                          C                               |  
 |              |            C  C           C                              |  
 |              |            C  C       CC                                 |  
 |              |                       C                                  |  
 |              |                   C                                      |  
 |              .-----------------C----------------------------------------.  
 |             /                C                                         /   
 |            /                                                          /    
 |           /                                                          /     
 |          /                                                          /      
 |         /                                                          /       
 |        /                                                          /        
 |       /                                                          /         
 |      /                                                          /          
 |     /                                                          /           
 |    /                                                          /            
 |   /                                                          /             
 |  /                                                          /              
 | /                                                          /               
 |/                                                          /                
 *----------------------------------------------------------*                 

Positions:
   0 C     13.329209   10.723393    8.916441
   1 C     13.606474   14.107297    8.869525
   2 C      8.242696   12.930477    9.302188
   3 C     12.289282    8.178781    8.916121
   4 C     14.113688   12.898047    8.879011
   5 C     13.398760   12.019705    8.899905
   6 C      8.389117   11.567481    8.750799
   7 C      9.533746   12.275091    9.509118
   8 C     13.402352    9.074598    8.935096
   9 C      9.573678   11.179682    9.070276
  10 C     13.338797   15.154532    8.895063
  11 C     11.329607    5.706443    8.735659
  12 C     11.814292    6.932214    8.868359

Unit cell:
           periodic     x           y           z      points  spacing
  1. axis:    no    24.000000    0.000000    0.000000   120     0.2000
  2. axis:    no     0.000000   24.000000    0.000000   120     0.2000
  3. axis:    no     0.000000    0.000000   18.000000    88     0.2045

  Lengths:  24.000000  24.000000  18.000000
  Angles:   90.000000  90.000000  90.000000

Effective grid spacing dv^(1/3) = 0.2015

                     log10-error:    total        iterations:
           time      wfs    density  energy       fermi  poisson
iter:   1  09:46:43          +inf   -77.107846    3      5      
iter:   2  09:46:43         -1.59   -76.956638    3      2      
iter:   3  09:46:44         -1.79   -76.890611    3      2      
iter:   4  09:46:44         -1.93   -76.867301    2      2      
iter:   5  09:46:45         -2.04   -76.878090    3      2      
iter:   6  09:46:45         -2.08   -76.870163    3      1      
iter:   7  09:46:46         -2.14   -76.861181    3      2      
iter:   8  09:46:46         -1.86   -76.868347    3      2      
iter:   9  09:46:47         -2.21   -76.853725    3      2      
iter:  10  09:46:47         -2.64   -76.847196    2      2      
iter:  11  09:46:48         -2.77   -76.846678    2      1      
iter:  12  09:46:48         -2.91   -76.846102    2      1      
iter:  13  09:46:48         -2.99   -76.846166    2      2      
iter:  14  09:46:49         -2.95   -76.845969    2      1      
iter:  15  09:46:49         -3.32   -76.846760    1      1      
iter:  16  09:46:50         -3.37   -76.846760    2      1      
iter:  17  09:46:50         -3.43   -76.846519    2      1      
iter:  18  09:46:51         -3.64   -76.847611    2      1      
iter:  19  09:46:51         -3.82   -76.847435    1      1      
iter:  20  09:46:52         -3.95   -76.847274    2      1      
iter:  21  09:46:52         -4.12   -76.847513    2      1      

Converged after 21 iterations.

Dipole moment: (0.002727, 0.052464, 0.045953) |e|*Ang

Energy contributions relative to reference atoms: (reference = -13359.165501)

Kinetic:       +122.581777
Potential:     -109.056303
External:        +0.000000
XC:             -91.675353
Entropy (-ST):   -0.367888
Local:           +1.486310
--------------------------
Free energy:    -77.031457
Extrapolated:   -76.847513

Fermi level: -6.17382

 Band  Eigenvalues  Occupancy
    0    -28.15083    2.00000
    1    -23.31347    2.00000
    2    -20.87885    2.00000
    3    -20.48490    2.00000
    4    -19.24356    2.00000
    5    -19.20420    2.00000
    6    -18.44367    2.00000
    7    -16.44991    2.00000
    8    -15.87329    2.00000
    9    -14.91036    2.00000
   10    -13.19333    2.00000
   11    -13.17652    2.00000
   12    -11.83522    2.00000
   13    -11.37739    2.00000
   14    -11.34804    2.00000
   15    -10.69146    2.00000
   16     -9.52234    2.00000
   17     -9.41903    2.00000
   18     -8.46449    2.00000
   19     -8.00456    2.00000
   20     -7.70286    2.00000
   21     -7.33536    1.99998
   22     -7.11346    1.99983
   23     -6.88479    1.99837
   24     -6.34286    1.68856
   25     -6.31705    1.61453
   26     -6.05116    0.45357
   27     -5.97677    0.24468
   28     -5.33891    0.00047
   29     -4.84713    0.00000
   30     -4.58067    0.00000
   31     -2.93495    0.00000
   32     -2.84946    0.00000
   33     -1.89715    0.00000
   34      0.29839    0.00000
   35      0.32060    0.00000
   36      0.48529    0.00000
   37      0.82103    0.00000
   38      1.74182    0.00000
   39      2.06719    0.00000
   40      3.33884    0.00000
   41      3.86261    0.00000
   42      5.02919    0.00000
   43      5.34753    0.00000
   44      5.65378    0.00000
   45      6.77066    0.00000
   46      7.09578    0.00000
   47      7.35880    0.00000
   48      7.63415    0.00000
   49      7.94207    0.00000
   50      8.12049    0.00000
   51      8.40774    0.00000
   52      8.59141    0.00000
   53      8.79556    0.00000
   54      8.94802    0.00000
   55      9.14961    0.00000
   56      9.30907    0.00000
   57      9.38107    0.00000
   58      9.53892    0.00000
   59      9.76324    0.00000
   60      9.94294    0.00000
   61      9.96665    0.00000
   62     10.04897    0.00000
   63     10.15094    0.00000
   64     10.58883    0.00000
   65     10.68231    0.00000
   66     10.80059    0.00000
   67     11.19065    0.00000
   68     11.75735    0.00000
   69     11.85263    0.00000
   70     12.17209    0.00000
   71     12.47320    0.00000
   72     12.68103    0.00000
   73     12.87875    0.00000
   74     12.93515    0.00000
   75     13.36404    0.00000


Forces in eV/Ang:
  0 C    -1.13480   -9.32691    0.11284
  1 C     8.37967  -20.23906   -0.63785
  2 C    -2.25966    2.60855    0.30574
  3 C     3.92289    1.41240   -0.01845
  4 C     8.12442   13.79991   -0.34938
  5 C    -8.07760  -18.32459    0.35848
  6 C    -7.33761    3.11509   -1.76271
  7 C    -0.93995   15.03557    5.79860
  8 C    -4.17037    5.36504   -0.10652
  9 C    10.63499  -20.77979   -4.34254
 10 C    -7.08208   26.05735    0.59087
 11 C     0.08349    0.33489    0.05806
 12 C    -0.18251    0.74124   -0.02493

System changes: positions 

Initializing position-dependent things.

Density initialized from wave functions
                .----------------------------------------------------------.  
               /|                                                          |  
              / |                                                          |  
             /  |                                                          |  
            /   |                                                          |  
           /    |                                                          |  
          /     |                                                          |  
         /      |                                                          |  
        /       |                                                          |  
       /        |                                                          |  
      /         |                                                          |  
     /          |                                                          |  
    /           |                                                          |  
   /            |                                                          |  
  /             |                                                          |  
 *              |                                                          |  
 |              |                                                          |  
 |              |                          C                               |  
 |              |            C  C           C                              |  
 |              |            C  C       CC                                 |  
 |              |                       C                                  |  
 |              |                   C                                      |  
 |              .-----------------C----------------------------------------.  
 |             /                C                                         /   
 |            /                                                          /    
 |           /                                                          /     
 |          /                                                          /      
 |         /                                                          /       
 |        /                                                          /        
 |       /                                                          /         
 |      /                                                          /          
 |     /                                                          /           
 |    /                                                          /            
 |   /                                                          /             
 |  /                                                          /              
 | /                                                          /               
 |/                                                          /                
 *----------------------------------------------------------*                 

Positions:
   0 C     13.326617   10.683480    8.916937
   1 C     13.624660   14.116436    8.868417
   2 C      8.239210   12.940059    9.305089
   3 C     12.305059    8.179831    8.915852
   4 C     14.097546   12.898730    8.878737
   5 C     13.415499   11.987194    8.900345
   6 C      8.396135   11.571247    8.754899
   7 C      9.514850   12.286536    9.506231
   8 C     13.383186    9.102999    8.934600
   9 C      9.589342   11.154550    9.066099
  10 C     13.324361   15.176731    8.895888
  11 C     11.330559    5.709321    8.736064
  12 C     11.814407    6.938782    8.868298

Unit cell:
           periodic     x           y           z      points  spacing
  1. axis:    no    24.000000    0.000000    0.000000   120     0.2000
  2. axis:    no     0.000000   24.000000    0.000000   120     0.2000
  3. axis:    no     0.000000    0.000000   18.000000    88     0.2045

  Lengths:  24.000000  24.000000  18.000000
  Angles:   90.000000  90.000000  90.000000

Effective grid spacing dv^(1/3) = 0.2015

                     log10-error:    total        iterations:
           time      wfs    density  energy       fermi  poisson
iter:   1  09:46:53          +inf   -79.723808    4      5      
iter:   2  09:46:53         -1.52   -79.505788    4      2      
iter:   3  09:46:54         -1.71   -79.377350    3      2      
iter:   4  09:46:54         -1.85   -79.311368    3      2      
iter:   5  09:46:55         -2.00   -79.320918    3      2      
iter:   6  09:46:55         -2.06   -79.317452    3      2      
iter:   7  09:46:56         -2.13   -79.305066    3      1      
iter:   8  09:46:56         -2.25   -79.288203    3      2      
iter:   9  09:46:57         -2.40   -79.290736    2      2      
iter:  10  09:46:57         -2.73   -79.290002    2      1      
iter:  11  09:46:58         -2.81   -79.286984    2      1      
iter:  12  09:46:58         -3.00   -79.287001    2      1      
iter:  13  09:46:59         -3.10   -79.287368    2      1      
iter:  14  09:46:59         -3.18   -79.287948    2      1      
iter:  15  09:46:59         -3.45   -79.288405    2      1      
iter:  16  09:47:00         -3.56   -79.288423    2      1      
iter:  17  09:47:00         -3.67   -79.288289    2      1      
iter:  18  09:47:01         -3.80   -79.288248    2      1      
iter:  19  09:47:01         -3.84   -79.288236    2      1      
iter:  20  09:47:02         -4.01   -79.288491    2      1      

Converged after 20 iterations.

Dipole moment: (0.100366, -0.049968, 0.043080) |e|*Ang

Energy contributions relative to reference atoms: (reference = -13359.165501)

Kinetic:       +112.600348
Potential:     -102.495325
External:        +0.000000
XC:             -90.736119
Entropy (-ST):   -0.310633
Local:           +1.497922
--------------------------
Free energy:    -79.443807
Extrapolated:   -79.288491

Fermi level: -6.13291

 Band  Eigenvalues  Occupancy
    0    -27.91700    2.00000
    1    -23.17807    2.00000
    2    -21.01810    2.00000
    3    -20.48043    2.00000
    4    -19.32911    2.00000
    5    -19.27750    2.00000
    6    -18.49756    2.00000
    7    -16.65682    2.00000
    8    -15.47256    2.00000
    9    -15.14673    2.00000
   10    -13.56944    2.00000
   11    -12.97252    2.00000
   12    -11.60384    2.00000
   13    -11.33270    2.00000
   14    -11.29551    2.00000
   15    -10.48842    2.00000
   16     -9.64828    2.00000
   17     -9.55919    2.00000
   18     -8.47658    2.00000
   19     -8.12414    2.00000
   20     -7.60978    2.00000
   21     -7.35428    1.99999
   22     -7.21408    1.99996
   23     -6.99948    1.99966
   24     -6.32535    1.74525
   25     -6.31750    1.72728
   26     -5.97363    0.33797
   27     -5.90681    0.18880
   28     -5.38146    0.00109
   29     -4.64390    0.00000
   30     -4.48632    0.00000
   31     -2.96052    0.00000
   32     -2.51141    0.00000
   33     -1.71013    0.00000
   34      0.18084    0.00000
   35      0.39450    0.00000
   36      0.64186    0.00000
   37      0.94366    0.00000
   38      1.71872    0.00000
   39      1.99294    0.00000
   40      3.50872    0.00000
   41      3.91716    0.00000
   42      5.08547    0.00000
   43      5.36947    0.00000
   44      5.77509    0.00000
   45      6.80072    0.00000
   46      7.10017    0.00000
   47      7.41376    0.00000
   48      7.58133    0.00000
   49      7.91363    0.00000
   50      8.13266    0.00000
   51      8.33524    0.00000
   52      8.73048    0.00000
   53      8.74733    0.00000
   54      8.89212    0.00000
   55      9.02824    0.00000
   56      9.30816    0.00000
   57      9.51213    0.00000
   58      9.54403    0.00000
   59      9.75765    0.00000
   60      9.90639    0.00000
   61     10.04467    0.00000
   62     10.12708    0.00000
   63     10.17841    0.00000
   64     10.50434    0.00000
   65     10.67583    0.00000
   66     10.79925    0.00000
   67     11.17065    0.00000
   68     11.74381    0.00000
   69     11.90267    0.00000
   70     12.23325    0.00000
   71     12.48761    0.00000
   72     12.71691    0.00000
   73     12.88699    0.00000
   74     12.99733    0.00000
   75     13.37337    0.00000


Forces in eV/Ang:
  0 C    -0.83710   -8.48008    0.10403
  1 C     7.73312  -16.62305   -0.56559
  2 C    -2.02990    2.35232    0.28907
  3 C     3.68984    1.23991   -0.02383
  4 C     6.88179   12.96866   -0.32426
  5 C    -7.00298  -17.82747    0.34904
  6 C    -6.44590    2.64392   -1.57797
  7 C    -0.87603   11.91734    4.53560
  8 C    -4.07156    5.29849   -0.10515
  9 C     9.45166  -16.92880   -3.24425
 10 C    -6.52845   22.06211    0.52080
 11 C     0.13294    0.46957    0.07615
 12 C    -0.11371    0.73646   -0.03565

System changes: positions 

Initializing position-dependent things.

Density initialized from wave functions
                .----------------------------------------------------------.  
               /|                                                          |  
              / |                                                          |  
             /  |                                                          |  
            /   |                                                          |  
           /    |                                                          |  
          /     |                                                          |  
         /      |                                                          |  
        /       |                                                          |  
       /        |                                                          |  
      /         |                                                          |  
     /          |                                                          |  
    /           |                                                          |  
   /            |                                                          |  
  /             |                                                          |  
 *              |                                                          |  
 |              |                                                          |  
 |              |                          C                               |  
 |              |            C  C           C                              |  
 |              |            C  C       CC                                 |  
 |              |                       C                                  |  
 |              |                   C                                      |  
 |              .-----------------C----------------------------------------.  
 |             /                C                                         /   
 |            /                                                          /    
 |           /                                                          /     
 |          /                                                          /      
 |         /                                                          /       
 |        /                                                          /        
 |       /                                                          /         
 |      /                                                          /          
 |     /                                                          /           
 |    /                                                          /            
 |   /                                                          /             
 |  /                                                          /              
 | /                                                          /               
 |/                                                          /                
 *----------------------------------------------------------*                 

Positions:
   0 C     13.326078   10.648800    8.917368
   1 C     13.643660   14.127203    8.867364
   2 C      8.235434   12.948370    9.307451
   3 C     12.319802    8.181346    8.915606
   4 C     14.080737   12.904272    8.878444
   5 C     13.431456   11.950519    8.900907
   6 C      8.396428   11.574381    8.756158
   7 C      9.501311   12.288613    9.501548
   8 C     13.364406    9.130005    8.934095
   9 C      9.606775   11.140868    9.067235
  10 C     13.308697   15.193094    8.896695
  11 C     11.331911    5.713356    8.736634
  12 C     11.814700    6.943914    8.868081

Unit cell:
           periodic     x           y           z      points  spacing
  1. axis:    no    24.000000    0.000000    0.000000   120     0.2000
  2. axis:    no     0.000000   24.000000    0.000000   120     0.2000
  3. axis:    no     0.000000    0.000000   18.000000    88     0.2045

  Lengths:  24.000000  24.000000  18.000000
  Angles:   90.000000  90.000000  90.000000

Effective grid spacing dv^(1/3) = 0.2015

                     log10-error:    total        iterations:
           time      wfs    density  energy       fermi  poisson
iter:   1  09:47:03          +inf   -81.498363    4      5      
iter:   2  09:47:03         -1.64   -81.350462    4      2      
iter:   3  09:47:04         -1.79   -81.241290    4      2      
iter:   4  09:47:04         -1.99   -81.199826    3      2      
iter:   5  09:47:05         -2.11   -81.203760    3      2      
iter:   6  09:47:05         -2.17   -81.195172    3      2      
iter:   7  09:47:06         -2.33   -81.189868    3      1      
iter:   8  09:47:06         -2.46   -81.180031    2      2      
iter:   9  09:47:07         -2.65   -81.182006    2      1      
iter:  10  09:47:07         -2.83   -81.181646    2      1      
iter:  11  09:47:07         -2.95   -81.179412    2      2      
iter:  12  09:47:08         -3.01   -81.180483    2      1      
iter:  13  09:47:08         -3.27   -81.180792    2      1      
iter:  14  09:47:09         -3.42   -81.180952    2      1      
iter:  15  09:47:09         -3.55   -81.180858    2      1      
iter:  16  09:47:10         -3.74   -81.181225    2      1      
iter:  17  09:47:10         -3.61   -81.181463    2      1      
iter:  18  09:47:11         -4.09   -81.181249    2      1      

Converged after 18 iterations.

Dipole moment: (0.188599, -0.120671, 0.043306) |e|*Ang

Energy contributions relative to reference atoms: (reference = -13359.165501)

Kinetic:       +106.047326
Potential:      -98.347098
External:        +0.000000
XC:             -90.234109
Entropy (-ST):   -0.266352
Local:           +1.485808
--------------------------
Free energy:    -81.314425
Extrapolated:   -81.181249

Fermi level: -6.10832

 Band  Eigenvalues  Occupancy
    0    -27.70558    2.00000
    1    -23.02344    2.00000
    2    -21.15436    2.00000
    3    -20.52133    2.00000
    4    -19.45910    2.00000
    5    -19.27718    2.00000
    6    -18.54560    2.00000
    7    -16.83737    2.00000
    8    -15.36449    2.00000
    9    -15.16641    2.00000
   10    -13.90390    2.00000
   11    -12.80214    2.00000
   12    -11.39766    2.00000
   13    -11.27629    2.00000
   14    -11.23710    2.00000
   15    -10.33490    2.00000
   16     -9.75854    2.00000
   17     -9.68058    2.00000
   18     -8.53719    2.00000
   19     -8.26073    2.00000
   20     -7.53750    2.00000
   21     -7.37425    1.99999
   22     -7.28014    1.99998
   23     -7.08053    1.99988
   24     -6.32612    1.79650
   25     -6.32167    1.78824
   26     -5.91893    0.26160
   27     -5.85846    0.15191
   28     -5.41253    0.00190
   29     -4.44597    0.00000
   30     -4.37005    0.00000
   31     -2.97720    0.00000
   32     -2.24720    0.00000
   33     -1.48457    0.00000
   34      0.07076    0.00000
   35      0.43538    0.00000
   36      0.54858    0.00000
   37      1.38007    0.00000
   38      1.77550    0.00000
   39      1.95632    0.00000
   40      3.61751    0.00000
   41      3.99394    0.00000
   42      5.10327    0.00000
   43      5.36226    0.00000
   44      5.83704    0.00000
   45      6.82777    0.00000
   46      7.13281    0.00000
   47      7.39577    0.00000
   48      7.59002    0.00000
   49      7.91945    0.00000
   50      8.15499    0.00000
   51      8.25473    0.00000
   52      8.73623    0.00000
   53      8.84306    0.00000
   54      8.86013    0.00000
   55      8.95582    0.00000
   56      9.26670    0.00000
   57      9.58016    0.00000
   58      9.62711    0.00000
   59      9.74259    0.00000
   60      9.88331    0.00000
   61     10.15574    0.00000
   62     10.15833    0.00000
   63     10.26653    0.00000
   64     10.45215    0.00000
   65     10.69500    0.00000
   66     10.79743    0.00000
   67     11.17142    0.00000
   68     11.76133    0.00000
   69     11.94219    0.00000
   70     12.28077    0.00000
   71     12.53238    0.00000
   72     12.74770    0.00000
   73     12.92085    0.00000
   74     13.10813    0.00000
   75     13.31617    0.00000


Forces in eV/Ang:
  0 C    -0.58958   -7.80156    0.10265
  1 C     7.32625  -14.24497   -0.53959
  2 C    -1.81386    2.02224    0.21945
  3 C     3.43009    1.02061   -0.02878
  4 C     5.10390   10.81178   -0.28202
  5 C    -5.25100  -15.53735    0.30258
  6 C    -5.58520    2.13088   -1.42858
  7 C    -0.75322   10.79968    4.12964
  8 C    -3.95637    4.80335   -0.08906
  9 C     8.23957  -14.99497   -2.93631
 10 C    -6.28408   19.50927    0.48830
 11 C     0.13250    0.48720    0.08358
 12 C     0.02451    0.91391   -0.02913

System changes: positions 

Initializing position-dependent things.

Density initialized from wave functions
                .----------------------------------------------------------.  
               /|                                                          |  
              / |                                                          |  
             /  |                                                          |  
            /   |                                                          |  
           /    |                                                          |  
          /     |                                                          |  
         /      |                                                          |  
        /       |                                                          |  
       /        |                                                          |  
      /         |                                                          |  
     /          |                                                          |  
    /           |                                                          |  
   /            |                                                          |  
  /             |                                                          |  
 *              |                                                          |  
 |              |                                                          |  
 |              |                          C                               |  
 |              |            C  C           C                              |  
 |              |            C  C       C C                                |  
 |              |                       C                                  |  
 |              |                   C                                      |  
 |              .-----------------C----------------------------------------.  
 |             /                C                                         /   
 |            /                                                          /    
 |           /                                                          /     
 |          /                                                          /      
 |         /                                                          /       
 |        /                                                          /        
 |       /                                                          /         
 |      /                                                          /          
 |     /                                                          /           
 |    /                                                          /            
 |   /                                                          /             
 |  /                                                          /              
 | /                                                          /               
 |/                                                          /                
 *----------------------------------------------------------*                 

Positions:
   0 C     13.327248   10.616347    8.917863
   1 C     13.665955   14.139782    8.865964
   2 C      8.231664   12.954626    9.308837
   3 C     12.334419    8.181991    8.915306
   4 C     14.060544   12.907932    8.878081
   5 C     13.450404   11.915297    8.901471
   6 C      8.397381   11.574936    8.756722
   7 C      9.490776   12.293969    9.499467
   8 C     13.344274    9.153641    8.933738
   9 C      9.620434   11.128173    9.067139
  10 C     13.289099   15.209089    8.897737
  11 C     11.333106    5.717320    8.737283
  12 C     11.816557    6.951597    8.867949

Unit cell:
           periodic     x           y           z      points  spacing
  1. axis:    no    24.000000    0.000000    0.000000   120     0.2000
  2. axis:    no     0.000000   24.000000    0.000000   120     0.2000
  3. axis:    no     0.000000    0.000000   18.000000    88     0.2045

  Lengths:  24.000000  24.000000  18.000000
  Angles:   90.000000  90.000000  90.000000

Effective grid spacing dv^(1/3) = 0.2015

                     log10-error:    total        iterations:
           time      wfs    density  energy       fermi  poisson
iter:   1  09:47:12          +inf   -83.096894    4      5      
iter:   2  09:47:12         -1.67   -82.961018    4      2      
iter:   3  09:47:13         -1.82   -82.881130    4      2      
iter:   4  09:47:13         -2.01   -82.834269    3      2      
iter:   5  09:47:14         -2.20   -82.833946    3      2      
iter:   6  09:47:14         -2.25   -82.820442    2      2      
iter:   7  09:47:14         -2.53   -82.817825    2      1      
iter:   8  09:47:15         -2.67   -82.815666    2      2      
iter:   9  09:47:15         -2.88   -82.816157    2      1      
iter:  10  09:47:16         -2.97   -82.814414    2      2      
iter:  11  09:47:16         -3.21   -82.814274    2      1      
iter:  12  09:47:17         -3.36   -82.814676    2      1      
iter:  13  09:47:17         -3.40   -82.814978    2      1      
iter:  14  09:47:18         -3.69   -82.814820    2      1      
iter:  15  09:47:18         -3.81   -82.815033    2      1      
iter:  16  09:47:19         -3.94   -82.815337    2      1      
iter:  17  09:47:19         -4.05   -82.815323    2      1      

Converged after 17 iterations.

Dipole moment: (0.260315, -0.197273, 0.042029) |e|*Ang

Energy contributions relative to reference atoms: (reference = -13359.165501)

Kinetic:       +100.785275
Potential:      -95.112973
External:        +0.000000
XC:             -89.852311
Entropy (-ST):   -0.219824
Local:           +1.474598
--------------------------
Free energy:    -82.925235
Extrapolated:   -82.815323

Fermi level: -6.07626

 Band  Eigenvalues  Occupancy
    0    -27.48483    2.00000
    1    -22.88071    2.00000
    2    -21.30034    2.00000
    3    -20.55785    2.00000
    4    -19.56769    2.00000
    5    -19.23566    2.00000
    6    -18.57006    2.00000
    7    -16.99745    2.00000
    8    -15.55678    2.00000
    9    -14.92119    2.00000
   10    -14.20708    2.00000
   11    -12.63458    2.00000
   12    -11.24376    2.00000
   13    -11.19551    2.00000
   14    -11.18729    2.00000
   15    -10.20516    2.00000
   16     -9.86281    2.00000
   17     -9.79809    2.00000
   18     -8.58899    2.00000
   19     -8.37566    2.00000
   20     -7.46895    2.00000
   21     -7.39991    2.00000
   22     -7.33468    1.99999
   23     -7.13522    1.99995
   24     -6.32484    1.84629
   25     -6.32149    1.84147
   26     -5.85306    0.19384
   27     -5.79673    0.11516
   28     -5.43577    0.00330
   29     -4.29226    0.00000
   30     -4.23190    0.00000
   31     -2.98499    0.00000
   32     -2.06291    0.00000
   33     -1.23928    0.00000
   34     -0.01787    0.00000
   35      0.44921    0.00000
   36      0.50370    0.00000
   37      1.58118    0.00000
   38      1.82070    0.00000
   39      2.10011    0.00000
   40      3.68966    0.00000
   41      4.08887    0.00000
   42      5.11624    0.00000
   43      5.35749    0.00000
   44      5.88756    0.00000
   45      6.84300    0.00000
   46      7.18977    0.00000
   47      7.33944    0.00000
   48      7.65228    0.00000
   49      7.93213    0.00000
   50      8.14479    0.00000
   51      8.21034    0.00000
   52      8.75238    0.00000
   53      8.77389    0.00000
   54      8.81786    0.00000
   55      9.00913    0.00000
   56      9.23551    0.00000
   57      9.59229    0.00000
   58      9.70727    0.00000
   59      9.75256    0.00000
   60      9.95931    0.00000
   61     10.18262    0.00000
   62     10.32282    0.00000
   63     10.35420    0.00000
   64     10.46053    0.00000
   65     10.72445    0.00000
   66     10.79740    0.00000
   67     11.19720    0.00000
   68     11.79910    0.00000
   69     11.96567    0.00000
   70     12.32940    0.00000
   71     12.59597    0.00000
   72     12.77382    0.00000
   73     12.97930    0.00000
   74     13.18505    0.00000
   75     13.27010    0.00000


Forces in eV/Ang:
  0 C    -0.39859   -6.85630    0.08484
  1 C     6.90033  -11.99568   -0.51109
  2 C    -1.66851    1.73297    0.14264
  3 C     3.16419    0.92243   -0.04378
  4 C     3.86848    9.26134   -0.23049
  5 C    -4.06875  -13.67415    0.28386
  6 C    -4.99938    1.84710   -1.29695
  7 C    -0.57811    9.45821    3.64370
  8 C    -3.74748    4.01216   -0.09313
  9 C     7.34831  -13.06708   -2.50061
 10 C    -6.00134   16.92320    0.45598
 11 C     0.19242    0.66235    0.10645
 12 C     0.02916    0.74690   -0.04237

System changes: positions 

Initializing position-dependent things.

Density initialized from wave functions
                .----------------------------------------------------------.  
               /|                                                          |  
              / |                                                          |  
             /  |                                                          |  
            /   |                                                          |  
           /    |                                                          |  
          /     |                                                          |  
         /      |                                                          |  
        /       |                                                          |  
       /        |                                                          |  
      /         |                                                          |  
     /          |                                                          |  
    /           |                                                          |  
   /            |                                                          |  
  /             |                                                          |  
 *              |                                                          |  
 |              |                                                          |  
 |              |                          CC                              |  
 |              |            C  C           C                              |  
 |              |            C  C       C C                                |  
 |              |                      C                                   |  
 |              |                   C                                      |  
 |              .-----------------C----------------------------------------.  
 |             /                C                                         /   
 |            /                                                          /    
 |           /                                                          /     
 |          /                                                          /      
 |         /                                                          /       
 |        /                                                          /        
 |       /                                                          /         
 |      /                                                          /          
 |     /                                                          /           
 |    /                                                          /            
 |   /                                                          /             
 |  /                                                          /              
 | /                                                          /               
 |/                                                          /                
 *----------------------------------------------------------*                 

Positions:
   0 C     13.329552   10.588082    8.918220
   1 C     13.691998   14.153963    8.864204
   2 C      8.227210   12.959598    9.309348
   3 C     12.349221    8.183073    8.914799
   4 C     14.038386   12.911870    8.877909
   5 C     13.470562   11.880757    8.902286
   6 C      8.396795   11.575493    8.756739
   7 C      9.482730   12.299092    9.498222
   8 C     13.323280    9.171216    8.933230
   9 C      9.634121   11.117166    9.067672
  10 C     13.265357   15.223705    8.899053
  11 C     11.335089    5.723701    8.738262
  12 C     11.818214    6.957486    8.867623

Unit cell:
           periodic     x           y           z      points  spacing
  1. axis:    no    24.000000    0.000000    0.000000   120     0.2000
  2. axis:    no     0.000000   24.000000    0.000000   120     0.2000
  3. axis:    no     0.000000    0.000000   18.000000    88     0.2045

  Lengths:  24.000000  24.000000  18.000000
[...]
            /   |                                                          |  
           /    |                                                          |  
          /     |                                                          |  
         /      |                                                          |  
        /       |                                                          |  
       /        |                                                          |  
      /         |                                                          |  
     /          |                                                          |  
    /           |                                                          |  
   /            |                                                          |  
  /             |                                                          |  
 *              |                                                          |  
 |              |                            C                             |  
 |              |                           C                              |  
 |              |            C  C         C                                |  
 |              |            C  C       CC                                 |  
 |              |                     C                                    |  
 |              |                    C                                     |  
 |              .------------------C---------------------------------------.  
 |             /                 C                                        /   
 |            /                                                          /    
 |           /                                                          /     
 |          /                                                          /      
 |         /                                                          /       
 |        /                                                          /        
 |       /                                                          /         
 |      /                                                          /          
 |     /                                                          /           
 |    /                                                          /            
 |   /                                                          /             
 |  /                                                          /              
 | /                                                          /               
 |/                                                          /                
 *----------------------------------------------------------*                 

Positions:
   0 C     13.053923   10.588694    8.919573
   1 C     13.652740   14.442410    8.931829
   2 C      8.071948   12.853990    9.319771
   3 C     12.474225    8.069085    8.846805
   4 C     13.490248   13.139701    8.944307
   5 C     13.303804   11.861246    8.946056
   6 C      8.517670   11.558807    8.764368
   7 C      9.475289   12.453519    9.569964
   8 C     12.809047    9.315789    8.889152
   9 C      9.919237   11.169438    8.989257
  10 C     13.802358   15.752324    8.905074
  11 C     11.597870    5.595054    8.737165
  12 C     12.106581    6.811106    8.799654

Unit cell:
           periodic     x           y           z      points  spacing
  1. axis:    no    24.000000    0.000000    0.000000   120     0.2000
  2. axis:    no     0.000000   24.000000    0.000000   120     0.2000
  3. axis:    no     0.000000    0.000000   18.000000    88     0.2045

  Lengths:  24.000000  24.000000  18.000000
  Angles:   90.000000  90.000000  90.000000

Effective grid spacing dv^(1/3) = 0.2015

                     log10-error:    total        iterations:
           time      wfs    density  energy       fermi  poisson
iter:   1  09:54:03          +inf   -89.187601    2      4      
iter:   2  09:54:04         -3.44   -89.188273    2      1      
iter:   3  09:54:04         -3.48   -89.188558    2      1      
iter:   4  09:54:05         -3.78   -89.188520    2      1      
iter:   5  09:54:05         -4.02   -89.188486    2      1      

Converged after 5 iterations.

Dipole moment: (0.089763, -0.065414, 0.042705) |e|*Ang

Energy contributions relative to reference atoms: (reference = -13359.165501)

Kinetic:        +56.117404
Potential:      -64.198794
External:        +0.000000
XC:             -82.558564
Entropy (-ST):   -0.021160
Local:           +1.462048
--------------------------
Free energy:    -89.199066
Extrapolated:   -89.188486

Fermi level: -6.43295

 Band  Eigenvalues  Occupancy
    0    -25.67189    2.00000
    1    -22.13230    2.00000
    2    -21.45996    2.00000
    3    -20.55224    2.00000
    4    -19.52692    2.00000
    5    -18.71357    2.00000
    6    -18.50719    2.00000
    7    -17.23423    2.00000
    8    -16.04170    2.00000
    9    -15.24566    2.00000
   10    -14.04823    2.00000
   11    -11.61428    2.00000
   12    -10.94313    2.00000
   13    -10.88345    2.00000
   14    -10.47153    2.00000
   15     -9.96240    2.00000
   16     -9.92501    2.00000
   17     -9.91667    2.00000
   18     -8.61146    2.00000
   19     -8.60809    2.00000
   20     -7.54683    1.99997
   21     -7.17192    1.99877
   22     -7.14580    1.99840
   23     -7.08221    1.99698
   24     -7.05402    1.99599
   25     -7.01053    1.99382
   26     -5.95068    0.01596
   27     -5.40268    0.00007
   28     -5.38071    0.00005
   29     -4.01816    0.00000
   30     -3.04868    0.00000
   31     -3.04473    0.00000
   32     -2.27162    0.00000
   33     -0.97065    0.00000
   34     -0.56681    0.00000
   35     -0.55559    0.00000
   36      1.86148    0.00000
   37      1.97941    0.00000
   38      2.52086    0.00000
   39      3.46361    0.00000
   40      3.95988    0.00000
   41      4.10462    0.00000
   42      4.34512    0.00000
   43      4.45588    0.00000
   44      5.20298    0.00000
   45      5.38015    0.00000
   46      5.81996    0.00000
   47      6.62857    0.00000
   48      7.18509    0.00000
   49      7.47253    0.00000
   50      7.74231    0.00000
   51      7.84755    0.00000
   52      8.26144    0.00000
   53      8.50057    0.00000
   54      8.67123    0.00000
   55      8.79445    0.00000
   56      9.02653    0.00000
   57      9.37689    0.00000
   58      9.41602    0.00000
   59      9.59615    0.00000
   60      9.69334    0.00000
   61     10.01879    0.00000
   62     10.28028    0.00000
   63     10.37331    0.00000
   64     10.45421    0.00000
   65     10.54299    0.00000
   66     10.75991    0.00000
   67     11.51911    0.00000
   68     11.72770    0.00000
   69     11.82603    0.00000
   70     12.17888    0.00000
   71     12.66093    0.00000
   72     12.89107    0.00000
   73     13.00569    0.00000
   74     13.02219    0.00000
   75     13.25193    0.00000


Forces in eV/Ang:
  0 C     0.02783   -0.06571   -0.00477
  1 C     0.04243    0.03390    0.01786
  2 C    -0.00210    0.00361    0.00832
  3 C    -0.02088    0.04321   -0.01574
  4 C    -0.06981    0.01697   -0.00107
  5 C     0.03229    0.08144   -0.01445
  6 C     0.02397    0.03044    0.01192
  7 C    -0.00634   -0.04823   -0.03575
  8 C     0.03130   -0.02642    0.00420
  9 C    -0.06894    0.04258    0.01849
 10 C     0.00043   -0.02938   -0.00900
 11 C     0.06456    0.03711    0.00372
 12 C    -0.07153   -0.07082   -0.00807

System changes: positions 

Initializing position-dependent things.

Density initialized from wave functions
                .----------------------------------------------------------.  
               /|                                                          |  
              / |                                                          |  
             /  |                                                          |  
            /   |                                                          |  
           /    |                                                          |  
          /     |                                                          |  
         /      |                                                          |  
        /       |                                                          |  
       /        |                                                          |  
      /         |                                                          |  
     /          |                                                          |  
    /           |                                                          |  
   /            |                                                          |  
  /             |                                                          |  
 *              |                                                          |  
 |              |                            C                             |  
 |              |                           C                              |  
 |              |            C  C         C                                |  
 |              |            C  C       CC                                 |  
 |              |                     C                                    |  
 |              |                    C                                     |  
 |              .------------------C---------------------------------------.  
 |             /                 C                                        /   
 |            /                                                          /    
 |           /                                                          /     
 |          /                                                          /      
 |         /                                                          /       
 |        /                                                          /        
 |       /                                                          /         
 |      /                                                          /          
 |     /                                                          /           
 |    /                                                          /            
 |   /                                                          /             
 |  /                                                          /              
 | /                                                          /               
 |/                                                          /                
 *----------------------------------------------------------*                 

Positions:
   0 C     13.068226   10.582431    8.918666
   1 C     13.653006   14.438767    8.931338
   2 C      8.071063   12.857970    9.321024
   3 C     12.479394    8.066109    8.845248
   4 C     13.483504   13.137250    8.944971
   5 C     13.307495   11.857099    8.948868
   6 C      8.509939   11.560611    8.763577
   7 C      9.472601   12.452450    9.567400
   8 C     12.823978    9.310125    8.886148
   9 C      9.909743   11.165305    8.991183
  10 C     13.798549   15.748785    8.902224
  11 C     11.583466    5.599568    8.739120
  12 C     12.099342    6.811934    8.801665

Unit cell:
           periodic     x           y           z      points  spacing
  1. axis:    no    24.000000    0.000000    0.000000   120     0.2000
  2. axis:    no     0.000000   24.000000    0.000000   120     0.2000
  3. axis:    no     0.000000    0.000000   18.000000    88     0.2045

  Lengths:  24.000000  24.000000  18.000000
  Angles:   90.000000  90.000000  90.000000

Effective grid spacing dv^(1/3) = 0.2015

                     log10-error:    total        iterations:
           time      wfs    density  energy       fermi  poisson
iter:   1  09:54:06          +inf   -89.189196    2      5      
iter:   2  09:54:07         -2.96   -89.189341    2      1      
iter:   3  09:54:07         -3.02   -89.189347    2      1      
iter:   4  09:54:07         -3.25   -89.189507    2      1      
iter:   5  09:54:08         -3.57   -89.189452    2      1      
iter:   6  09:54:08         -3.81   -89.189391    1      1      
iter:   7  09:54:09         -3.88   -89.189365    1      1      
iter:   8  09:54:09         -4.12   -89.189396    1      1      

Converged after 8 iterations.

Dipole moment: (0.095873, -0.067029, 0.041431) |e|*Ang

Energy contributions relative to reference atoms: (reference = -13359.165501)

Kinetic:        +56.284782
Potential:      -64.333518
External:        +0.000000
XC:             -82.593026
Entropy (-ST):   -0.020797
Local:           +1.462765
--------------------------
Free energy:    -89.199795
Extrapolated:   -89.189396

Fermi level: -6.43113

 Band  Eigenvalues  Occupancy
    0    -25.67149    2.00000
    1    -22.13503    2.00000
    2    -21.46260    2.00000
    3    -20.55578    2.00000
    4    -19.53061    2.00000
    5    -18.71020    2.00000
    6    -18.51010    2.00000
    7    -17.23829    2.00000
    8    -16.04471    2.00000
    9    -15.24811    2.00000
   10    -14.05068    2.00000
   11    -11.61290    2.00000
   12    -10.94064    2.00000
   13    -10.88585    2.00000
   14    -10.47360    2.00000
   15     -9.95908    2.00000
   16     -9.92742    2.00000
   17     -9.91933    2.00000
   18     -8.61438    2.00000
   19     -8.61054    2.00000
   20     -7.54538    1.99997
   21     -7.17046    1.99877
   22     -7.14515    1.99842
   23     -7.07755    1.99689
   24     -7.05595    1.99614
   25     -7.01296    1.99407
   26     -5.94666    0.01562
   27     -5.40372    0.00007
   28     -5.38276    0.00006
   29     -4.01924    0.00000
   30     -3.04970    0.00000
   31     -3.04599    0.00000
   32     -2.27175    0.00000
   33     -0.96154    0.00000
   34     -0.56627    0.00000
   35     -0.55302    0.00000
   36      1.85915    0.00000
   37      1.98014    0.00000
   38      2.52505    0.00000
   39      3.46028    0.00000
   40      3.93029    0.00000
   41      4.10925    0.00000
   42      4.38957    0.00000
   43      4.46545    0.00000
   44      5.19394    0.00000
   45      5.39346    0.00000
   46      5.82405    0.00000
   47      6.63101    0.00000
   48      7.17829    0.00000
   49      7.46322    0.00000
   50      7.74242    0.00000
   51      7.84043    0.00000
   52      8.25594    0.00000
   53      8.49558    0.00000
   54      8.67411    0.00000
   55      8.79351    0.00000
   56      9.02329    0.00000
   57      9.37754    0.00000
   58      9.41697    0.00000
   59      9.59937    0.00000
   60      9.68090    0.00000
   61     10.01821    0.00000
   62     10.28014    0.00000
   63     10.36860    0.00000
   64     10.45564    0.00000
   65     10.53844    0.00000
   66     10.76075    0.00000
   67     11.52356    0.00000
   68     11.71885    0.00000
   69     11.82709    0.00000
   70     12.18042    0.00000
   71     12.66366    0.00000
   72     12.89641    0.00000
   73     13.01123    0.00000
   74     13.02958    0.00000
   75     13.25521    0.00000


Forces in eV/Ang:
  0 C     0.00693   -0.00298   -0.00276
  1 C     0.01242    0.03465    0.01485
  2 C    -0.00629    0.00833   -0.00767
  3 C    -0.03535    0.04352   -0.00758
  4 C    -0.02881   -0.02250    0.01161
  5 C     0.03716    0.07819   -0.01072
  6 C     0.01895    0.05642    0.01262
  7 C     0.00051   -0.04138   -0.03834
  8 C     0.03204   -0.03895    0.00252
  9 C    -0.04383    0.01091    0.00958
 10 C     0.00285   -0.00652   -0.00929
 11 C     0.04674    0.01042   -0.00904
 12 C    -0.04852   -0.04604   -0.01018

Timing:                                       incl.     excl.
--------------------------------------------------------------------
Basic WFS set positions:                      0.027     0.023   0.0% |
 Redistribute:                                0.004     0.004   0.0% |
Basis functions set positions:                1.064     1.064   0.0% |
Forces:                                      27.859    23.410   1.0% |
 LCAO forces:                                 4.449     0.063   0.0% |
  Atomic Hamiltonian force:                   0.000     0.000   0.0% |
  Initial:                                    0.043     0.001   0.0% |
   Get density matrix:                        0.042     0.042   0.0% |
  Paw correction:                             0.003     0.003   0.0% |
  Potential:                                  0.040     0.040   0.0% |
  TCI derivative:                             4.300     4.300   0.2% |
  Wait for sum:                               0.001     0.001   0.0% |
LCAO WFS Initialize:                         40.031     0.015   0.0% |
 Density initialized from wave functions:     6.425     6.397   0.3% |
  Calculate density matrix:                   0.027     0.027   0.0% |
  Construct density:                          0.001     0.001   0.0% |
  Symmetrize density:                         0.001     0.001   0.0% |
 Hamiltonian:                                33.590     0.008   0.0% |
  Atomic:                                     0.016     0.015   0.0% |
   XC Correction:                             0.000     0.000   0.0% |
  Calculate atomic Hamiltonians:              0.022     0.022   0.0% |
  Communicate:                                3.269     3.269   0.1% |
  Hartree integrate/restrict:                 0.510     0.510   0.0% |
  Initialize Hamiltonian:                     0.002     0.002   0.0% |
  Poisson:                                   17.554    17.554   0.7% |
  XC 3D grid:                                12.074    12.074   0.5% |
  vbar:                                       0.135     0.135   0.0% |
Redistribute:                                 0.009     0.009   0.0% |
SCF-cycle:                                  424.030     0.419   0.0% |
 Density:                                    83.740     0.019   0.0% |
  Atomic density matrices:                   74.226    74.226   3.0% ||
  Mix:                                        8.764     8.764   0.4% |
  Multipole moments:                          0.197     0.197   0.0% |
  Normalize:                                  0.139     0.139   0.0% |
  Pseudo density:                             0.395     0.140   0.0% |
   Calculate density matrix:                  0.237     0.237   0.0% |
   Construct density:                         0.007     0.007   0.0% |
   Symmetrize density:                        0.011     0.011   0.0% |
 Hamiltonian:                               260.023     0.098   0.0% |
  Atomic:                                     0.199     0.195   0.0% |
   XC Correction:                             0.004     0.004   0.0% |
  Calculate atomic Hamiltonians:              0.266     0.266   0.0% |
  Communicate:                               41.040    41.040   1.7% ||
  Hartree integrate/restrict:                 6.412     6.412   0.3% |
  Poisson:                                   59.220    59.220   2.4% ||
  XC 3D grid:                               151.109   151.109   6.1% |-|
  vbar:                                       1.679     1.679   0.1% |
 LCAO eigensolver:                           79.848     0.079   0.0% |
  Calculate projections:                      0.007     0.007   0.0% |
  DenseAtomicCorrection:                      0.020     0.020   0.0% |
  Distribute overlap matrix:                 73.430    73.430   3.0% ||
  Orbital Layouts:                            6.256     6.256   0.3% |
  Potential matrix:                           0.057     0.057   0.0% |
Set symmetry:                                 0.102     0.102   0.0% |
TCI: Calculate S, T, P:                       0.248     0.248   0.0% |
TCI: Evaluate splines:                        0.061     0.061   0.0% |
Other:                                     1966.782  1966.782  79.9% |-------------------------------|
--------------------------------------------------------------------
Total:                                               2460.212 100.0%

Memory usage: 221.78 MiB
Date: Fri Mar 23 10:26:53 2018
