
  ___ ___ ___ _ _ _  
 |   |   |_  | | | | 
 | | | | | . | | | | 
 |__ |  _|___|_____|  1.3.1b1
 |___|_|             

User:   mkb@s91n12.grendel.cscaa.dk
Date:   Fri Mar 23 10:45:17 2018
Arch:   x86_64
Pid:    423519
Python: 2.7.13
gpaw:   /home/mkb/gpaw/gpaw
_gpaw:  /home/mkb/gpaw/build/bin.linux-x86_64-2.7/gpaw-python
ase:    /home/mkb/ase/ase (version 3.15.1b1)
numpy:  /comm/swstack/core/python/2.7.13/lib/python2.7/site-packages/numpy (version 1.13.3)
scipy:  /comm/swstack/core/python/2.7.13/lib/python2.7/site-packages/scipy (version 0.19.1)
units:  Angstrom and eV
cores:  36
Extra parameters: {'blacs': True}

Input parameters:
  basis: dzp
  gpts: [120 120  88]
  kpts: [1 1 1]
  maxiter: 99
  mixer: {backend: pulay,
          beta: 0.05,
          method: separate,
          nmaxold: 5,
          weight: 75}
  mode: lcao
  nbands: -50
  occupations: {name: fermi-dirac,
                width: 0.1}
  poissonsolver: {eps: 1e-07,
                  name: fd,
                  nn: 3,
                  relax: GS}
  xc: PBE

System changes: positions, numbers, cell, pbc, initial_charges, initial_magmoms 

Initialize ...

C-setup:
  name: Carbon
  id: 4aa54d4b901d75f77cc0ea3eec22967b
  Z: 6
  valence: 4
  core: 2
  charge: 0.0
  file: /home/esb/DFT/gpaw-setups-0.8.7929/C.PBE.gz
  cutoffs: 0.64(comp), 1.14(filt), 1.14(core), lmax=2
  valence states:
                energy  radius
    2s(2.00)   -13.751   0.635
    2p(2.00)    -5.284   0.635
    *s          13.461   0.635
    *p          21.927   0.635
    *d           0.000   0.635

  LCAO basis set for C:
    Name: dzp
    File: /home/esb/DFT/gpaw-setups-0.8.7929/C.dzp.basis.gz
    Number of radial functions: 5
    Number of spherical harmonics: 13
      l=0, rc=5.5469 Bohr: 2s-sz confined orbital
      l=1, rc=6.6719 Bohr: 2p-sz confined orbital
      l=0, rc=3.0312 Bohr: 2s-dz split-valence wave
      l=1, rc=3.7500 Bohr: 2p-dz split-valence wave
      l=2, rc=6.6719 Bohr: d-type Gaussian polarization

Reference energy: -13359.165501

Spin-paired calculation

Occupation numbers:
  Fermi-Dirac: width=0.1000 eV

Convergence criteria:
  Maximum total energy change: 0.0005 eV / electron
  Maximum integral of absolute density change: 0.0001 electrons
  Maximum integral of absolute eigenstate change: 4e-08 eV^2
  Maximum number of iterations: 99

Symmetries present (total): 1

  ( 1  0  0)
  ( 0  1  0)
  ( 0  0  1)

1 k-point (Gamma)
1 k-point in the irreducible part of the Brillouin zone
       k-points in crystal coordinates                weights
   0:     0.00000000    0.00000000    0.00000000          1/1

Wave functions: LCAO
  Diagonalizer: Serial LAPACK
  Atomic Correction: dense with blas
  Datatype: float
  Eigensolver: None 

LCAO using direct dense diagonalizer 

Densities:
  Coarse grid: 120*120*88 grid
  Fine grid: 240*240*176 grid
  Total Charge: 0.000000 

Density mixing:
  Method: separate
  Backend: pulay
  Linear mixing parameter: 0.05
  Mixing with 5 old densities
  Damping of long wave oscillations: 75 

Hamiltonian:
  XC and Coulomb potentials evaluated on a 240*240*176 grid
  Using the PBE Exchange-Correlation functional
  Interpolation: tri-quintic (5. degree polynomial)
  Poisson solver: Gauss-Seidel solver with 5 multi-grid levels
    Coarsest grid: 15 x 15 x 11 points
    Stencil: 6*3+1=19 point O(h^6) finite-difference Laplacian
    Max iterations: 1000
    Tolerance: 1.000000e-07 

Memory estimate:
  Process memory now: 221.78 MiB
  Calculator: 19.91 MiB
    Density: 9.40 MiB
      Arrays: 6.69 MiB
      Localized functions: 0.21 MiB
      Mixer: 2.50 MiB
    Hamiltonian: 9.40 MiB
      Arrays: 4.38 MiB
      XC: 0.00 MiB
      Poisson: 5.01 MiB
      vbar: 0.02 MiB
    Wavefunctions: 1.11 MiB
      C [qnM]: 0.10 MiB
      S, T [2 x qmm]: 0.44 MiB
      P [aqMi]: 0.00 MiB
      TCI: 0.00 MiB
      BasisFunctions: 0.57 MiB
      Eigensolver: 0.00 MiB

Total number of cores used: 36
Domain decomposition: 3 x 4 x 3

Number of atoms: 13
Number of atomic orbitals: 169
Number of bands in calculation: 76
Bands to converge: occupied states only
Number of valence electrons: 52

... initialized

Initializing position-dependent things.

Density initialized from atomic densities
                .----------------------------------------------------------.  
               /|                                                          |  
              / |                                                          |  
             /  |                                                          |  
            /   |                                                          |  
           /    |                                                          |  
          /     |                                                          |  
         /      |                                                          |  
        /       |                                                          |  
       /        |                                                          |  
      /         |                                                          |  
     /          |                                                          |  
    /           |                                                          |  
   /            |                                                          |  
  /             |                                                          |  
 *              |                                                          |  
 |              |              C                                           |  
 |              |                    C   C                                 |  
 |              |              C  C    CC                                  |  
 |              |                      C                                   |  
 |              |                     C                                    |  
 |              |                     C                                    |  
 |              .--------------------C-------------------------------------.  
 |             /                     C                                    /   
 |            /                     C                                    /    
 |           /                                                          /     
 |          /                                                          /      
 |         /                                                          /       
 |        /                                                          /        
 |       /                                                          /         
 |      /                                                          /          
 |     /                                                          /           
 |    /                                                          /            
 |   /                                                          /             
 |  /                                                          /              
 | /                                                          /               
 |/                                                          /                
 *----------------------------------------------------------*                 

Positions:
   0 C     12.628219    9.618440    8.885035
   1 C     12.224554   13.694918    8.904719
   2 C      9.123301   12.848747    9.371677
   3 C     12.953890    6.906272    8.827631
   4 C     12.334940   12.325170    8.901791
   5 C     12.488670   10.971628    8.898762
   6 C      9.752820   13.972601    8.762376
   7 C      8.607458   14.112374    9.582620
   8 C     12.801631    8.265116    8.856514
   9 C     11.041926   14.486776    8.991288
  10 C     12.281371   15.093844    8.921727
  11 C     13.331428    4.160002    8.729178
  12 C     13.136189    5.542315    8.790969

Unit cell:
           periodic     x           y           z      points  spacing
  1. axis:    no    24.000000    0.000000    0.000000   120     0.2000
  2. axis:    no     0.000000   24.000000    0.000000   120     0.2000
  3. axis:    no     0.000000    0.000000   18.000000    88     0.2045

  Lengths:  24.000000  24.000000  18.000000
  Angles:   90.000000  90.000000  90.000000

Effective grid spacing dv^(1/3) = 0.2015

                     log10-error:    total        iterations:
           time      wfs    density  energy       fermi  poisson
iter:   1  10:45:18          +inf   -92.032153    1      6      
iter:   2  10:45:19         -0.87   -91.565462    3      3      
iter:   3  10:45:19         -0.92   -90.910841    32     3      
iter:   4  10:45:20         -1.05   -90.606354    34     4      
iter:   5  10:45:20         -1.31   -90.424435    3      2      
iter:   6  10:45:21         -1.44   -90.343666    4      3      
iter:   7  10:45:22         -1.66   -90.307414    3      2      
iter:   8  10:45:22         -1.79   -90.290052    2      2      
iter:   9  10:45:23         -1.95   -90.283263    3      2      
iter:  10  10:45:23         -2.08   -90.276846    3      2      
iter:  11  10:45:24         -2.26   -90.273687    2      2      
iter:  12  10:45:24         -2.33   -90.271314    3      2      
iter:  13  10:45:24         -2.49   -90.269303    2      2      
iter:  14  10:45:25         -2.61   -90.269202    2      2      
iter:  15  10:45:25         -2.91   -90.268062    2      2      
iter:  16  10:45:26         -3.31   -90.266358    2      1      
iter:  17  10:45:26         -3.40   -90.267436    2      1      
iter:  18  10:45:27         -3.52   -90.268395    2      1      
iter:  19  10:45:27         -3.61   -90.266732    1      1      
iter:  20  10:45:28         -3.77   -90.266393    2      1      
iter:  21  10:45:28         -3.84   -90.264476    2      1      
iter:  22  10:45:29         -4.04   -90.266273    2      1      

Converged after 22 iterations.

Dipole moment: (0.000948, 0.733176, -0.146065) |e|*Ang

Energy contributions relative to reference atoms: (reference = -13359.165501)

Kinetic:        +28.853085
Potential:      -39.190532
External:        +0.000000
XC:             -81.288821
Entropy (-ST):   -0.267626
Local:           +1.493808
--------------------------
Free energy:    -90.400086
Extrapolated:   -90.266273

Fermi level: -5.87699

 Band  Eigenvalues  Occupancy
    0    -25.25763    2.00000
    1    -24.10377    2.00000
    2    -21.23687    2.00000
    3    -20.53577    2.00000
    4    -19.58240    2.00000
    5    -18.47006    2.00000
    6    -18.12802    2.00000
    7    -17.16489    2.00000
    8    -15.78462    2.00000
    9    -14.63574    2.00000
   10    -13.18023    2.00000
   11    -12.27599    2.00000
   12    -11.66435    2.00000
   13    -11.31973    2.00000
   14    -11.10184    2.00000
   15    -10.05904    2.00000
   16     -9.97367    2.00000
   17     -9.66443    2.00000
   18     -8.91676    2.00000
   19     -8.82146    2.00000
   20     -7.63694    2.00000
   21     -7.44366    2.00000
   22     -7.32298    2.00000
   23     -6.90449    1.99993
   24     -6.74918    1.99967
   25     -5.92457    1.23350
   26     -5.82925    0.76572
   27     -5.12902    0.00113
   28     -4.81395    0.00005
   29     -3.72320    0.00000
   30     -2.82766    0.00000
   31     -1.81034    0.00000
   32     -1.72289    0.00000
   33     -1.53904    0.00000
   34     -0.29236    0.00000
   35      0.58091    0.00000
   36      0.75041    0.00000
   37      1.77755    0.00000
   38      1.94947    0.00000
   39      2.68479    0.00000
   40      2.75266    0.00000
   41      3.68901    0.00000
   42      4.05906    0.00000
   43      4.85126    0.00000
   44      5.59233    0.00000
   45      6.07774    0.00000
   46      6.94999    0.00000
   47      7.18238    0.00000
   48      7.45941    0.00000
   49      7.72134    0.00000
   50      8.31667    0.00000
   51      8.58215    0.00000
   52      8.60509    0.00000
   53      8.77747    0.00000
   54      8.98416    0.00000
   55      9.18059    0.00000
   56      9.22509    0.00000
   57      9.24831    0.00000
   58      9.41614    0.00000
   59      9.97885    0.00000
   60     10.08156    0.00000
   61     10.15763    0.00000
   62     10.46221    0.00000
   63     10.85948    0.00000
   64     11.02586    0.00000
   65     11.24297    0.00000
   66     11.40780    0.00000
   67     11.78210    0.00000
   68     11.86228    0.00000
   69     12.39226    0.00000
   70     12.66089    0.00000
   71     12.84742    0.00000
   72     12.86195    0.00000
   73     13.22957    0.00000
   74     13.97708    0.00000
   75     14.26098    0.00000

Timing:                              incl.     excl.
-----------------------------------------------------------
Basic WFS set positions:             0.000     0.000   0.0% |
Basis functions set positions:       0.013     0.013   0.1% |
LCAO WFS Initialize:                 0.524     0.012   0.1% |
 Hamiltonian:                        0.511     0.000   0.0% |
  Atomic:                            0.000     0.000   0.0% |
   XC Correction:                    0.000     0.000   0.0% |
  Calculate atomic Hamiltonians:     0.000     0.000   0.0% |
  Communicate:                       0.042     0.042   0.4% |
  Hartree integrate/restrict:        0.007     0.007   0.1% |
  Initialize Hamiltonian:            0.002     0.002   0.0% |
  Poisson:                           0.297     0.297   2.6% ||
  XC 3D grid:                        0.160     0.160   1.4% ||
  vbar:                              0.002     0.002   0.0% |
SCF-cycle:                          10.322     0.011   0.1% |
 Density:                            1.958     0.000   0.0% |
  Atomic density matrices:           1.744     1.744  15.4% |-----|
  Mix:                               0.198     0.198   1.8% ||
  Multipole moments:                 0.004     0.004   0.0% |
  Normalize:                         0.002     0.002   0.0% |
  Pseudo density:                    0.009     0.003   0.0% |
   Calculate density matrix:         0.006     0.006   0.1% |
   Construct density:                0.000     0.000   0.0% |
   Symmetrize density:               0.000     0.000   0.0% |
 Hamiltonian:                        6.493     0.002   0.0% |
  Atomic:                            0.004     0.004   0.0% |
   XC Correction:                    0.000     0.000   0.0% |
  Calculate atomic Hamiltonians:     0.006     0.006   0.1% |
  Communicate:                       0.888     0.888   7.9% |--|
  Hartree integrate/restrict:        0.144     0.144   1.3% ||
  Poisson:                           2.018     2.018  17.8% |------|
  XC 3D grid:                        3.392     3.392  30.0% |-----------|
  vbar:                              0.039     0.039   0.3% |
 LCAO eigensolver:                   1.859     0.002   0.0% |
  Calculate projections:             0.000     0.000   0.0% |
  DenseAtomicCorrection:             0.000     0.000   0.0% |
  Distribute overlap matrix:         1.718     1.718  15.2% |-----|
  Orbital Layouts:                   0.138     0.138   1.2% |
  Potential matrix:                  0.001     0.001   0.0% |
Set symmetry:                        0.088     0.088   0.8% |
TCI: Calculate S, T, P:              0.003     0.003   0.0% |
TCI: Evaluate splines:               0.061     0.061   0.5% |
Other:                               0.298     0.298   2.6% ||
-----------------------------------------------------------
Total:                                        11.308 100.0%

Memory usage: 221.78 MiB
Date: Fri Mar 23 10:45:29 2018
