
  ___ ___ ___ _ _ _  
 |   |   |_  | | | | 
 | | | | | . | | | | 
 |__ |  _|___|_____|  1.3.1b1
 |___|_|             

User:   mkb@s91n53.grendel.cscaa.dk
Date:   Thu Mar 22 22:28:05 2018
Arch:   x86_64
Pid:    399355
Python: 2.7.13
gpaw:   /home/mkb/gpaw/gpaw
_gpaw:  /home/mkb/gpaw/build/bin.linux-x86_64-2.7/gpaw-python
ase:    /home/mkb/ase/ase (version 3.15.1b1)
numpy:  /comm/swstack/core/python/2.7.13/lib/python2.7/site-packages/numpy (version 1.13.3)
scipy:  /comm/swstack/core/python/2.7.13/lib/python2.7/site-packages/scipy (version 0.19.1)
units:  Angstrom and eV
cores:  36
Extra parameters: {'blacs': True}

Input parameters:
  basis: dzp
  gpts: [120 120  88]
  kpts: [1 1 1]
  maxiter: 99
  mixer: {backend: pulay,
          beta: 0.05,
          method: separate,
          nmaxold: 5,
          weight: 75}
  mode: lcao
  nbands: -50
  occupations: {name: fermi-dirac,
                width: 0.1}
  poissonsolver: {eps: 1e-07,
                  name: fd,
                  nn: 3,
                  relax: GS}
  xc: PBE

System changes: positions, numbers, cell, pbc, initial_charges, initial_magmoms 

Initialize ...

C-setup:
  name: Carbon
  id: 4aa54d4b901d75f77cc0ea3eec22967b
  Z: 6
  valence: 4
  core: 2
  charge: 0.0
  file: /home/esb/DFT/gpaw-setups-0.8.7929/C.PBE.gz
  cutoffs: 0.64(comp), 1.14(filt), 1.14(core), lmax=2
  valence states:
                energy  radius
    2s(2.00)   -13.751   0.635
    2p(2.00)    -5.284   0.635
    *s          13.461   0.635
    *p          21.927   0.635
    *d           0.000   0.635

  LCAO basis set for C:
    Name: dzp
    File: /home/esb/DFT/gpaw-setups-0.8.7929/C.dzp.basis.gz
    Number of radial functions: 5
    Number of spherical harmonics: 13
      l=0, rc=5.5469 Bohr: 2s-sz confined orbital
      l=1, rc=6.6719 Bohr: 2p-sz confined orbital
      l=0, rc=3.0312 Bohr: 2s-dz split-valence wave
      l=1, rc=3.7500 Bohr: 2p-dz split-valence wave
      l=2, rc=6.6719 Bohr: d-type Gaussian polarization

Reference energy: -13359.165501

Spin-paired calculation

Occupation numbers:
  Fermi-Dirac: width=0.1000 eV

Convergence criteria:
  Maximum total energy change: 0.0005 eV / electron
  Maximum integral of absolute density change: 0.0001 electrons
  Maximum integral of absolute eigenstate change: 4e-08 eV^2
  Maximum number of iterations: 99

Symmetries present (total): 1

  ( 1  0  0)
  ( 0  1  0)
  ( 0  0  1)

1 k-point (Gamma)
1 k-point in the irreducible part of the Brillouin zone
       k-points in crystal coordinates                weights
   0:     0.00000000    0.00000000    0.00000000          1/1

Wave functions: LCAO
  Diagonalizer: Serial LAPACK
  Atomic Correction: dense with blas
  Datatype: float
  Eigensolver: None 

LCAO using direct dense diagonalizer 

Densities:
  Coarse grid: 120*120*88 grid
  Fine grid: 240*240*176 grid
  Total Charge: 0.000000 

Density mixing:
  Method: separate
  Backend: pulay
  Linear mixing parameter: 0.05
  Mixing with 5 old densities
  Damping of long wave oscillations: 75 

Hamiltonian:
  XC and Coulomb potentials evaluated on a 240*240*176 grid
  Using the PBE Exchange-Correlation functional
  Interpolation: tri-quintic (5. degree polynomial)
  Poisson solver: Gauss-Seidel solver with 5 multi-grid levels
    Coarsest grid: 15 x 15 x 11 points
    Stencil: 6*3+1=19 point O(h^6) finite-difference Laplacian
    Max iterations: 1000
    Tolerance: 1.000000e-07 

Memory estimate:
  Process memory now: 205.38 MiB
  Calculator: 19.91 MiB
    Density: 9.40 MiB
      Arrays: 6.69 MiB
      Localized functions: 0.21 MiB
      Mixer: 2.50 MiB
    Hamiltonian: 9.40 MiB
      Arrays: 4.38 MiB
      XC: 0.00 MiB
      Poisson: 5.01 MiB
      vbar: 0.02 MiB
    Wavefunctions: 1.11 MiB
      C [qnM]: 0.10 MiB
      S, T [2 x qmm]: 0.44 MiB
      P [aqMi]: 0.00 MiB
      TCI: 0.00 MiB
      BasisFunctions: 0.57 MiB
      Eigensolver: 0.00 MiB

Total number of cores used: 36
Domain decomposition: 3 x 4 x 3

Number of atoms: 13
Number of atomic orbitals: 169
Number of bands in calculation: 76
Bands to converge: occupied states only
Number of valence electrons: 52

... initialized

Initializing position-dependent things.

Density initialized from atomic densities
                .----------------------------------------------------------.  
               /|                                                          |  
              / |                                                          |  
             /  |                                                          |  
            /   |                                                          |  
           /    |                                                          |  
          /     |                                                          |  
         /      |                                                          |  
        /       |                                                          |  
       /        |                                                          |  
      /         |                                                          |  
     /          |                                                          |  
    /           |                                                          |  
   /            |                                                          |  
  /             |                                                          |  
 *              |                                                          |  
 |              |                   C     C  C                             |  
 |              |                   C  C       C  C                        |  
 |              |                C   C                                     |  
 |              |               C                                          |  
 |              |                  C                                       |  
 |              |               C                                          |  
 |              .----------------------------------------------------------.  
 |             /                                                          /   
 |            /                                                          /    
 |           /                                                          /     
 |          /                                                          /      
 |         /                                                          /       
 |        /                                                          /        
 |       /                                                          /         
 |      /                                                          /          
 |     /                                                          /           
 |    /                                                          /            
 |   /                                                          /             
 |  /                                                          /              
 | /                                                          /               
 |/                                                          /                
 *----------------------------------------------------------*                 

Positions:
   0 C     11.953978   13.384825    9.738784
   1 C     10.180683   11.558602    9.499659
   2 C     10.094172   10.261938    9.120066
   3 C     10.786822   14.252417    9.501137
   4 C     12.127131   10.623782    9.755113
   5 C     11.504211   11.848026    9.774426
   6 C     14.608601   13.127423   10.105310
   7 C     10.157137    8.889747    8.950292
   8 C     11.312880    9.605465    9.340355
   9 C     13.329391   13.663005    9.940581
  10 C     15.508487   12.080862   10.282930
  11 C     10.943221   12.820625    9.558816
  12 C     16.820048   11.629542   10.496510

Unit cell:
           periodic     x           y           z      points  spacing
  1. axis:    no    24.000000    0.000000    0.000000   120     0.2000
  2. axis:    no     0.000000   24.000000    0.000000   120     0.2000
  3. axis:    no     0.000000    0.000000   18.000000    88     0.2045

  Lengths:  24.000000  24.000000  18.000000
  Angles:   90.000000  90.000000  90.000000

Effective grid spacing dv^(1/3) = 0.2015

                     log10-error:    total        iterations:
           time      wfs    density  energy       fermi  poisson
iter:   1  22:28:07          +inf   -80.387306    2      6      
iter:   2  22:28:08         -0.91   -79.948859    3      3      
iter:   3  22:28:09         -0.94   -80.020529    34     4      
iter:   4  22:28:10         -1.01   -80.773759    4      2      
iter:   5  22:28:11         -1.00   -80.711480    2      2      
iter:   6  22:28:12         -1.00   -79.142175    5      3      
iter:   7  22:28:13         -1.30   -79.013083    4      3      
iter:   8  22:28:14         -1.38   -78.583369    4      3      
iter:   9  22:28:15         -1.53   -78.295277    32     2      
iter:  10  22:28:16         -1.80   -78.312712    3      2      
iter:  11  22:28:17         -1.85   -78.288298    3      2      
iter:  12  22:28:17         -1.97   -78.309974    3      2      
iter:  13  22:28:18         -1.99   -78.285232    4      2      
iter:  14  22:28:19         -2.16   -78.294611    3      2      
iter:  15  22:28:20         -2.43   -78.283192    3      2      
iter:  16  22:28:21         -2.66   -78.282280    2      2      
iter:  17  22:28:22         -2.76   -78.282914    2      2      
iter:  18  22:28:23         -2.84   -78.283672    2      1      
iter:  19  22:28:24         -2.92   -78.284166    2      1      
iter:  20  22:28:25         -3.11   -78.282985    2      1      
iter:  21  22:28:26         -3.18   -78.283909    2      1      
iter:  22  22:28:26         -3.36   -78.282083    2      1      
iter:  23  22:28:27         -3.54   -78.281481    2      1      
iter:  24  22:28:28         -3.65   -78.281574    2      1      
iter:  25  22:28:29         -3.74   -78.280411    2      1      
iter:  26  22:28:30         -4.00   -78.280434    2      1      
iter:  27  22:28:31         -4.03   -78.281928    2      1      

Converged after 27 iterations.

Dipole moment: (-0.797776, -0.025108, -0.101388) |e|*Ang

Energy contributions relative to reference atoms: (reference = -13359.165501)

Kinetic:       +100.409636
Potential:      -83.185684
External:        +0.000000
XC:             -96.933788
Entropy (-ST):   -0.226129
Local:           +1.540973
--------------------------
Free energy:    -78.394992
Extrapolated:   -78.281928

Fermi level: -5.82231

 Band  Eigenvalues  Occupancy
    0    -30.38795    2.00000
    1    -26.20761    2.00000
    2    -24.47520    2.00000
    3    -20.85432    2.00000
    4    -20.44520    2.00000
    5    -19.66837    2.00000
    6    -18.58012    2.00000
    7    -17.32011    2.00000
    8    -16.37104    2.00000
    9    -15.57946    2.00000
   10    -15.38425    2.00000
   11    -14.08058    2.00000
   12    -12.47756    2.00000
   13    -12.00201    2.00000
   14    -11.56435    2.00000
   15    -10.87027    2.00000
   16     -9.37441    2.00000
   17     -9.06641    2.00000
   18     -8.71852    2.00000
   19     -8.44626    2.00000
   20     -8.25802    2.00000
   21     -7.46038    2.00000
   22     -7.15781    2.00000
   23     -6.32915    1.98749
   24     -6.17193    1.94116
   25     -5.98199    1.66314
   26     -5.68619    0.40811
   27     -4.83751    0.00011
   28     -4.15085    0.00000
   29     -3.99840    0.00000
   30     -2.60699    0.00000
   31     -2.14171    0.00000
   32     -1.51357    0.00000
   33     -0.85386    0.00000
   34     -0.32472    0.00000
   35      0.05158    0.00000
   36      0.81625    0.00000
   37      1.52041    0.00000
   38      2.05094    0.00000
   39      2.66980    0.00000
   40      3.49823    0.00000
   41      4.15712    0.00000
   42      4.99000    0.00000
   43      5.65862    0.00000
   44      6.31110    0.00000
   45      6.99747    0.00000
   46      7.09357    0.00000
   47      7.48069    0.00000
   48      7.64454    0.00000
   49      8.17387    0.00000
   50      8.28875    0.00000
   51      8.48891    0.00000
   52      8.86192    0.00000
   53      9.02217    0.00000
   54      9.27011    0.00000
   55      9.59475    0.00000
   56      9.68564    0.00000
   57      9.96623    0.00000
   58     10.01996    0.00000
   59     10.17230    0.00000
   60     10.30202    0.00000
   61     10.63612    0.00000
   62     10.84120    0.00000
   63     10.89215    0.00000
   64     11.60491    0.00000
   65     11.88508    0.00000
   66     12.05982    0.00000
   67     12.19620    0.00000
   68     12.24205    0.00000
   69     12.43681    0.00000
   70     12.68535    0.00000
   71     12.75298    0.00000
   72     13.64696    0.00000
   73     13.87254    0.00000
   74     14.19168    0.00000
   75     14.34107    0.00000

Timing:                              incl.     excl.
-----------------------------------------------------------
Basic WFS set positions:             0.001     0.001   0.0% |
Basis functions set positions:       0.021     0.021   0.1% |
LCAO WFS Initialize:                 0.973     0.023   0.1% |
 Hamiltonian:                        0.950     0.000   0.0% |
  Atomic:                            0.000     0.000   0.0% |
   XC Correction:                    0.000     0.000   0.0% |
  Calculate atomic Hamiltonians:     0.000     0.000   0.0% |
  Communicate:                       0.071     0.071   0.3% |
  Hartree integrate/restrict:        0.014     0.014   0.1% |
  Initialize Hamiltonian:            0.003     0.003   0.0% |
  Poisson:                           0.572     0.572   2.2% ||
  XC 3D grid:                        0.285     0.285   1.1% |
  vbar:                              0.004     0.004   0.0% |
SCF-cycle:                          24.321     0.019   0.1% |
 Density:                            5.204     0.001   0.0% |
  Atomic density matrices:           4.688     4.688  18.0% |------|
  Mix:                               0.481     0.481   1.8% ||
  Multipole moments:                 0.007     0.007   0.0% |
  Normalize:                         0.005     0.005   0.0% |
  Pseudo density:                    0.021     0.009   0.0% |
   Calculate density matrix:         0.011     0.011   0.0% |
   Construct density:                0.000     0.000   0.0% |
   Symmetrize density:               0.001     0.001   0.0% |
 Hamiltonian:                       14.436     0.005   0.0% |
  Atomic:                            0.010     0.009   0.0% |
   XC Correction:                    0.000     0.000   0.0% |
  Calculate atomic Hamiltonians:     0.011     0.011   0.0% |
  Communicate:                       1.845     1.845   7.1% |--|
  Hartree integrate/restrict:        0.367     0.367   1.4% ||
  Poisson:                           4.685     4.685  18.0% |------|
  XC 3D grid:                        7.419     7.419  28.5% |----------|
  vbar:                              0.093     0.093   0.4% |
 LCAO eigensolver:                   4.662     0.003   0.0% |
  Calculate projections:             0.000     0.000   0.0% |
  DenseAtomicCorrection:             0.001     0.001   0.0% |
  Distribute overlap matrix:         4.424     4.424  17.0% |------|
  Orbital Layouts:                   0.230     0.230   0.9% |
  Potential matrix:                  0.003     0.003   0.0% |
Set symmetry:                        0.023     0.023   0.1% |
TCI: Calculate S, T, P:              0.006     0.006   0.0% |
TCI: Evaluate splines:               0.114     0.114   0.4% |
Other:                               0.569     0.569   2.2% ||
-----------------------------------------------------------
Total:                                        26.028 100.0%

Memory usage: 205.42 MiB
Date: Thu Mar 22 22:28:31 2018
