
  ___ ___ ___ _ _ _  
 |   |   |_  | | | | 
 | | | | | . | | | | 
 |__ |  _|___|_____|  1.3.1b1
 |___|_|             

User:   mkb@s91n53.grendel.cscaa.dk
Date:   Thu Mar 22 22:20:38 2018
Arch:   x86_64
Pid:    399355
Python: 2.7.13
gpaw:   /home/mkb/gpaw/gpaw
_gpaw:  /home/mkb/gpaw/build/bin.linux-x86_64-2.7/gpaw-python
ase:    /home/mkb/ase/ase (version 3.15.1b1)
numpy:  /comm/swstack/core/python/2.7.13/lib/python2.7/site-packages/numpy (version 1.13.3)
scipy:  /comm/swstack/core/python/2.7.13/lib/python2.7/site-packages/scipy (version 0.19.1)
units:  Angstrom and eV
cores:  36
Extra parameters: {'blacs': True}

Input parameters:
  basis: dzp
  gpts: [120 120  88]
  kpts: [1 1 1]
  maxiter: 99
  mixer: {backend: pulay,
          beta: 0.05,
          method: separate,
          nmaxold: 5,
          weight: 75}
  mode: lcao
  nbands: -50
  occupations: {name: fermi-dirac,
                width: 0.1}
  poissonsolver: {eps: 1e-07,
                  name: fd,
                  nn: 3,
                  relax: GS}
  xc: PBE

System changes: positions, numbers, cell, pbc, initial_charges, initial_magmoms 

Initialize ...

C-setup:
  name: Carbon
  id: 4aa54d4b901d75f77cc0ea3eec22967b
  Z: 6
  valence: 4
  core: 2
  charge: 0.0
  file: /home/esb/DFT/gpaw-setups-0.8.7929/C.PBE.gz
  cutoffs: 0.64(comp), 1.14(filt), 1.14(core), lmax=2
  valence states:
                energy  radius
    2s(2.00)   -13.751   0.635
    2p(2.00)    -5.284   0.635
    *s          13.461   0.635
    *p          21.927   0.635
    *d           0.000   0.635

  LCAO basis set for C:
    Name: dzp
    File: /home/esb/DFT/gpaw-setups-0.8.7929/C.dzp.basis.gz
    Number of radial functions: 5
    Number of spherical harmonics: 13
      l=0, rc=5.5469 Bohr: 2s-sz confined orbital
      l=1, rc=6.6719 Bohr: 2p-sz confined orbital
      l=0, rc=3.0312 Bohr: 2s-dz split-valence wave
      l=1, rc=3.7500 Bohr: 2p-dz split-valence wave
      l=2, rc=6.6719 Bohr: d-type Gaussian polarization

Reference energy: -13359.165501

Spin-paired calculation

Occupation numbers:
  Fermi-Dirac: width=0.1000 eV

Convergence criteria:
  Maximum total energy change: 0.0005 eV / electron
  Maximum integral of absolute density change: 0.0001 electrons
  Maximum integral of absolute eigenstate change: 4e-08 eV^2
  Maximum number of iterations: 99

Symmetries present (total): 1

  ( 1  0  0)
  ( 0  1  0)
  ( 0  0  1)

1 k-point (Gamma)
1 k-point in the irreducible part of the Brillouin zone
       k-points in crystal coordinates                weights
   0:     0.00000000    0.00000000    0.00000000          1/1

Wave functions: LCAO
  Diagonalizer: Serial LAPACK
  Atomic Correction: dense with blas
  Datatype: float
  Eigensolver: None 

LCAO using direct dense diagonalizer 

Densities:
  Coarse grid: 120*120*88 grid
  Fine grid: 240*240*176 grid
  Total Charge: 0.000000 

Density mixing:
  Method: separate
  Backend: pulay
  Linear mixing parameter: 0.05
  Mixing with 5 old densities
  Damping of long wave oscillations: 75 

Hamiltonian:
  XC and Coulomb potentials evaluated on a 240*240*176 grid
  Using the PBE Exchange-Correlation functional
  Interpolation: tri-quintic (5. degree polynomial)
  Poisson solver: Gauss-Seidel solver with 5 multi-grid levels
    Coarsest grid: 15 x 15 x 11 points
    Stencil: 6*3+1=19 point O(h^6) finite-difference Laplacian
    Max iterations: 1000
    Tolerance: 1.000000e-07 

Memory estimate:
  Process memory now: 204.96 MiB
  Calculator: 19.91 MiB
    Density: 9.40 MiB
      Arrays: 6.69 MiB
      Localized functions: 0.21 MiB
      Mixer: 2.50 MiB
    Hamiltonian: 9.40 MiB
      Arrays: 4.38 MiB
      XC: 0.00 MiB
      Poisson: 5.01 MiB
      vbar: 0.02 MiB
    Wavefunctions: 1.11 MiB
      C [qnM]: 0.10 MiB
      S, T [2 x qmm]: 0.44 MiB
      P [aqMi]: 0.00 MiB
      TCI: 0.00 MiB
      BasisFunctions: 0.57 MiB
      Eigensolver: 0.00 MiB

Total number of cores used: 36
Domain decomposition: 3 x 4 x 3

Number of atoms: 13
Number of atomic orbitals: 169
Number of bands in calculation: 76
Bands to converge: occupied states only
Number of valence electrons: 52

... initialized

Initializing position-dependent things.

Density initialized from atomic densities
                .----------------------------------------------------------.  
               /|                                                          |  
              / |                                                          |  
             /  |                                                          |  
            /   |                                                          |  
           /    |                                                          |  
          /     |                                                          |  
         /      |                                                          |  
        /       |                                                          |  
       /        |                                                          |  
      /         |                                                          |  
     /          |                                                          |  
    /           |                                                          |  
   /            |                                                          |  
  /             |                                                          |  
 *              |                                 C                        |  
 |              |                           C  C                           |  
 |              |                     C  C                                 |  
 |              |              C   C  C                                    |  
 |              |              C      C                                    |  
 |              |               C  C                                       |  
 |              |                                                          |  
 |              .----------------------------------------------------------.  
 |             /                                                          /   
 |            /                                                          /    
 |           /                                                          /     
 |          /                                                          /      
 |         /                                                          /       
 |        /                                                          /        
 |       /                                                          /         
 |      /                                                          /          
 |     /                                                          /           
 |    /                                                          /            
 |   /                                                          /             
 |  /                                                          /              
 | /                                                          /               
 |/                                                          /                
 *----------------------------------------------------------*                 

Positions:
   0 C     11.771608   12.448038    9.738784
   1 C      9.478115   11.452624    9.499659
   2 C      9.738743   10.248605    9.120066
   3 C     11.467491   13.768002    9.501137
   4 C     12.489837    9.981119    9.755113
   5 C     12.159348   11.329717    9.774426
   6 C     14.245538   13.225125   10.105310
   7 C     10.241559    9.025610    8.950292
   8 C     11.468177    9.262658    9.340355
   9 C     13.077222   12.596424    9.940581
  10 C     15.303887   14.049671   10.282930
  11 C     10.713074   11.728197    9.558816
  12 C     16.127944   15.105037   10.496510

Unit cell:
           periodic     x           y           z      points  spacing
  1. axis:    no    24.000000    0.000000    0.000000   120     0.2000
  2. axis:    no     0.000000   24.000000    0.000000   120     0.2000
  3. axis:    no     0.000000    0.000000   18.000000    88     0.2045

  Lengths:  24.000000  24.000000  18.000000
  Angles:   90.000000  90.000000  90.000000

Effective grid spacing dv^(1/3) = 0.2015

                     log10-error:    total        iterations:
           time      wfs    density  energy       fermi  poisson
iter:   1  22:20:40          +inf   -83.674401    1      6      
iter:   2  22:20:41         -0.86   -82.700729    3      3      
iter:   3  22:20:42         -0.91   -81.648456    3      3      
iter:   4  22:20:43         -1.00   -80.820034    33     3      
iter:   5  22:20:44         -1.22   -80.668413    33     3      
iter:   6  22:20:45         -1.45   -80.623452    3      3      
iter:   7  22:20:46         -1.79   -80.621517    2      2      
iter:   8  22:20:47         -1.86   -80.605998    3      2      
iter:   9  22:20:48         -2.08   -80.601101    3      2      
iter:  10  22:20:49         -2.19   -80.595654    3      2      
iter:  11  22:20:50         -2.53   -80.592594    2      2      
iter:  12  22:20:51         -2.62   -80.593514    2      2      
iter:  13  22:20:52         -2.89   -80.600975    2      1      
iter:  14  22:20:53         -2.96   -80.597295    2      1      
iter:  15  22:20:54         -3.04   -80.589942    2      1      
iter:  16  22:20:55         -3.19   -80.592489    2      1      
iter:  17  22:20:56         -3.26   -80.585515    2      1      
iter:  18  22:20:57         -3.54   -80.588648    2      1      
iter:  19  22:20:58         -3.69   -80.590768    2      1      
iter:  20  22:20:58         -3.79   -80.589514    2      1      
iter:  21  22:20:59         -3.97   -80.589291    2      1      
iter:  22  22:21:00         -4.08   -80.591639    2      1      

Converged after 22 iterations.

Dipole moment: (-0.829699, -0.895655, -0.219952) |e|*Ang

Energy contributions relative to reference atoms: (reference = -13359.165501)

Kinetic:       +104.108145
Potential:      -88.013082
External:        +0.000000
XC:             -98.196549
Entropy (-ST):   -0.154268
Local:           +1.586981
--------------------------
Free energy:    -80.668774
Extrapolated:   -80.591639

Fermi level: -5.31163

 Band  Eigenvalues  Occupancy
    0    -29.69663    2.00000
    1    -24.83964    2.00000
    2    -22.70246    2.00000
    3    -22.32407    2.00000
    4    -20.73640    2.00000
    5    -20.22950    2.00000
    6    -19.81296    2.00000
    7    -17.87330    2.00000
    8    -16.33842    2.00000
    9    -15.30612    2.00000
   10    -15.02111    2.00000
   11    -14.78097    2.00000
   12    -13.44134    2.00000
   13    -13.11385    2.00000
   14    -11.39734    2.00000
   15    -10.32813    2.00000
   16     -9.80492    2.00000
   17     -9.35784    2.00000
   18     -9.03163    2.00000
   19     -8.84948    2.00000
   20     -8.30989    2.00000
   21     -7.45365    2.00000
   22     -6.95484    2.00000
   23     -6.66099    2.00000
   24     -6.36901    1.99995
   25     -5.50325    1.74341
   26     -5.11938    0.25516
   27     -4.59021    0.00147
   28     -4.11584    0.00001
   29     -3.87426    0.00000
   30     -3.29165    0.00000
   31     -2.82327    0.00000
   32     -2.41210    0.00000
   33     -1.87224    0.00000
   34     -0.06178    0.00000
   35      0.07536    0.00000
   36      0.50750    0.00000
   37      1.56993    0.00000
   38      2.48603    0.00000
   39      2.95222    0.00000
   40      4.51694    0.00000
   41      5.24777    0.00000
   42      5.46517    0.00000
   43      6.07762    0.00000
   44      6.53430    0.00000
   45      6.94546    0.00000
   46      7.24071    0.00000
   47      7.41192    0.00000
   48      7.49935    0.00000
   49      7.82786    0.00000
   50      8.04749    0.00000
   51      8.35863    0.00000
   52      8.47359    0.00000
   53      8.64218    0.00000
   54      9.07459    0.00000
   55      9.15052    0.00000
   56      9.58353    0.00000
   57      9.67190    0.00000
   58      9.73902    0.00000
   59     10.37973    0.00000
   60     10.46466    0.00000
   61     10.81450    0.00000
   62     10.85980    0.00000
   63     11.13426    0.00000
   64     11.58692    0.00000
   65     12.06479    0.00000
   66     12.16606    0.00000
   67     12.51317    0.00000
   68     12.55761    0.00000
   69     12.82450    0.00000
   70     13.22149    0.00000
   71     13.24239    0.00000
   72     13.74232    0.00000
   73     13.96664    0.00000
   74     14.69005    0.00000
   75     15.07349    0.00000

Timing:                              incl.     excl.
-----------------------------------------------------------
Basic WFS set positions:             0.001     0.001   0.0% |
Basis functions set positions:       0.022     0.022   0.1% |
LCAO WFS Initialize:                 0.977     0.024   0.1% |
 Hamiltonian:                        0.953     0.000   0.0% |
  Atomic:                            0.000     0.000   0.0% |
   XC Correction:                    0.000     0.000   0.0% |
  Calculate atomic Hamiltonians:     0.000     0.000   0.0% |
  Communicate:                       0.071     0.071   0.3% |
  Hartree integrate/restrict:        0.014     0.014   0.1% |
  Initialize Hamiltonian:            0.004     0.004   0.0% |
  Poisson:                           0.573     0.573   2.5% ||
  XC 3D grid:                        0.286     0.286   1.3% ||
  vbar:                              0.004     0.004   0.0% |
SCF-cycle:                          20.830     0.016   0.1% |
 Density:                            4.936     0.001   0.0% |
  Atomic density matrices:           4.515     4.515  20.0% |-------|
  Mix:                               0.391     0.391   1.7% ||
  Multipole moments:                 0.006     0.006   0.0% |
  Normalize:                         0.004     0.004   0.0% |
  Pseudo density:                    0.019     0.009   0.0% |
   Calculate density matrix:         0.009     0.009   0.0% |
   Construct density:                0.000     0.000   0.0% |
   Symmetrize density:               0.000     0.000   0.0% |
 Hamiltonian:                       11.494     0.004   0.0% |
  Atomic:                            0.008     0.008   0.0% |
   XC Correction:                    0.000     0.000   0.0% |
  Calculate atomic Hamiltonians:     0.009     0.009   0.0% |
  Communicate:                       1.491     1.491   6.6% |--|
  Hartree integrate/restrict:        0.299     0.299   1.3% ||
  Poisson:                           3.620     3.620  16.1% |-----|
  XC 3D grid:                        5.986     5.986  26.6% |----------|
  vbar:                              0.078     0.078   0.3% |
 LCAO eigensolver:                   4.384     0.003   0.0% |
  Calculate projections:             0.000     0.000   0.0% |
  DenseAtomicCorrection:             0.001     0.001   0.0% |
  Distribute overlap matrix:         4.188     4.188  18.6% |------|
  Orbital Layouts:                   0.190     0.190   0.8% |
  Potential matrix:                  0.003     0.003   0.0% |
Set symmetry:                        0.033     0.033   0.1% |
TCI: Calculate S, T, P:              0.006     0.006   0.0% |
TCI: Evaluate splines:               0.113     0.113   0.5% |
Other:                               0.561     0.561   2.5% ||
-----------------------------------------------------------
Total:                                        22.542 100.0%

Memory usage: 205.03 MiB
Date: Thu Mar 22 22:21:00 2018
