
  ___ ___ ___ _ _ _  
 |   |   |_  | | | | 
 | | | | | . | | | | 
 |__ |  _|___|_____|  1.3.1b1
 |___|_|             

User:   mkb@s91n53.grendel.cscaa.dk
Date:   Thu Mar 22 20:28:37 2018
Arch:   x86_64
Pid:    399355
Python: 2.7.13
gpaw:   /home/mkb/gpaw/gpaw
_gpaw:  /home/mkb/gpaw/build/bin.linux-x86_64-2.7/gpaw-python
ase:    /home/mkb/ase/ase (version 3.15.1b1)
numpy:  /comm/swstack/core/python/2.7.13/lib/python2.7/site-packages/numpy (version 1.13.3)
scipy:  /comm/swstack/core/python/2.7.13/lib/python2.7/site-packages/scipy (version 0.19.1)
units:  Angstrom and eV
cores:  36
Extra parameters: {'blacs': True}

Input parameters:
  basis: dzp
  gpts: [120 120  88]
  kpts: [1 1 1]
  maxiter: 99
  mixer: {backend: pulay,
          beta: 0.05,
          method: separate,
          nmaxold: 5,
          weight: 75}
  mode: lcao
  nbands: -50
  occupations: {name: fermi-dirac,
                width: 0.1}
  poissonsolver: {eps: 1e-07,
                  name: fd,
                  nn: 3,
                  relax: GS}
  xc: PBE

System changes: positions, numbers, cell, pbc, initial_charges, initial_magmoms 

Initialize ...

C-setup:
  name: Carbon
  id: 4aa54d4b901d75f77cc0ea3eec22967b
  Z: 6
  valence: 4
  core: 2
  charge: 0.0
  file: /home/esb/DFT/gpaw-setups-0.8.7929/C.PBE.gz
  cutoffs: 0.64(comp), 1.14(filt), 1.14(core), lmax=2
  valence states:
                energy  radius
    2s(2.00)   -13.751   0.635
    2p(2.00)    -5.284   0.635
    *s          13.461   0.635
    *p          21.927   0.635
    *d           0.000   0.635

  LCAO basis set for C:
    Name: dzp
    File: /home/esb/DFT/gpaw-setups-0.8.7929/C.dzp.basis.gz
    Number of radial functions: 5
    Number of spherical harmonics: 13
      l=0, rc=5.5469 Bohr: 2s-sz confined orbital
      l=1, rc=6.6719 Bohr: 2p-sz confined orbital
      l=0, rc=3.0312 Bohr: 2s-dz split-valence wave
      l=1, rc=3.7500 Bohr: 2p-dz split-valence wave
      l=2, rc=6.6719 Bohr: d-type Gaussian polarization

Reference energy: -13359.165501

Spin-paired calculation

Occupation numbers:
  Fermi-Dirac: width=0.1000 eV

Convergence criteria:
  Maximum total energy change: 0.0005 eV / electron
  Maximum integral of absolute density change: 0.0001 electrons
  Maximum integral of absolute eigenstate change: 4e-08 eV^2
  Maximum number of iterations: 99

Symmetries present (total): 1

  ( 1  0  0)
  ( 0  1  0)
  ( 0  0  1)

1 k-point (Gamma)
1 k-point in the irreducible part of the Brillouin zone
       k-points in crystal coordinates                weights
   0:     0.00000000    0.00000000    0.00000000          1/1

Wave functions: LCAO
  Diagonalizer: Serial LAPACK
  Atomic Correction: dense with blas
  Datatype: float
  Eigensolver: None 

LCAO using direct dense diagonalizer 

Densities:
  Coarse grid: 120*120*88 grid
  Fine grid: 240*240*176 grid
  Total Charge: 0.000000 

Density mixing:
  Method: separate
  Backend: pulay
  Linear mixing parameter: 0.05
  Mixing with 5 old densities
  Damping of long wave oscillations: 75 

Hamiltonian:
  XC and Coulomb potentials evaluated on a 240*240*176 grid
  Using the PBE Exchange-Correlation functional
  Interpolation: tri-quintic (5. degree polynomial)
  Poisson solver: Gauss-Seidel solver with 5 multi-grid levels
    Coarsest grid: 15 x 15 x 11 points
    Stencil: 6*3+1=19 point O(h^6) finite-difference Laplacian
    Max iterations: 1000
    Tolerance: 1.000000e-07 

Memory estimate:
  Process memory now: 156.70 MiB
  Calculator: 19.91 MiB
    Density: 9.40 MiB
      Arrays: 6.69 MiB
      Localized functions: 0.21 MiB
      Mixer: 2.50 MiB
    Hamiltonian: 9.40 MiB
      Arrays: 4.38 MiB
      XC: 0.00 MiB
      Poisson: 5.01 MiB
      vbar: 0.02 MiB
    Wavefunctions: 1.11 MiB
      C [qnM]: 0.10 MiB
      S, T [2 x qmm]: 0.44 MiB
      P [aqMi]: 0.00 MiB
      TCI: 0.00 MiB
      BasisFunctions: 0.57 MiB
      Eigensolver: 0.00 MiB

Total number of cores used: 36
Domain decomposition: 3 x 4 x 3

Number of atoms: 13
Number of atomic orbitals: 169
Number of bands in calculation: 76
Bands to converge: occupied states only
Number of valence electrons: 52

... initialized

Initializing position-dependent things.

Density initialized from atomic densities
                .----------------------------------------------------------.  
               /|                                                          |  
              / |                                                          |  
             /  |                                                          |  
            /   |                                                          |  
           /    |                                                          |  
          /     |                                                          |  
         /      |                                                          |  
        /       |                                                          |  
       /        |                                                          |  
      /         |                                                          |  
     /          |                                                          |  
    /           |                                                          |  
   /            |                                                          |  
  /             |                                                          |  
 *              |                                                          |  
 |              |                 C                                        |  
 |              |                  C   C      C                            |  
 |              |                     C    C    C                          |  
 |              |                   C                                      |  
 |              |            C CC C   C                                    |  
 |              |                                                          |  
 |              .----------------------------------------------------------.  
 |             /                                                          /   
 |            /                                                          /    
 |           /                                                          /     
 |          /                                                          /      
 |         /                                                          /       
 |        /                                                          /        
 |       /                                                          /         
 |      /                                                          /          
 |     /                                                          /           
 |    /                                                          /            
 |   /                                                          /             
 |  /                                                          /              
 | /                                                          /               
 |/                                                          /                
 *----------------------------------------------------------*                 

Positions:
   0 C     11.721643   14.659911    8.962202
   1 C     10.007392   10.475648    8.883636
   2 C      8.856356    9.692758    9.065792
   3 C     10.146542   14.699751    8.870272
   4 C     12.796234    8.826294    9.353323
   5 C     11.384101   10.500694    8.995593
   6 C     13.690651   13.095983    9.184315
   7 C      9.981787    8.933817    9.421930
   8 C     11.326453    8.951133    9.524598
   9 C     11.580052   13.312161    9.059058
  10 C     15.191934   13.013034    9.310627
  11 C      9.392164   15.871803    8.831280
  12 C     16.123229   11.856555    9.404379

Unit cell:
           periodic     x           y           z      points  spacing
  1. axis:    no    24.000000    0.000000    0.000000   120     0.2000
  2. axis:    no     0.000000   24.000000    0.000000   120     0.2000
  3. axis:    no     0.000000    0.000000   18.000000    88     0.2045

  Lengths:  24.000000  24.000000  18.000000
  Angles:   90.000000  90.000000  90.000000

Effective grid spacing dv^(1/3) = 0.2015

                     log10-error:    total        iterations:
           time      wfs    density  energy       fermi  poisson
iter:   1  20:28:39          +inf   -78.557333    3      6      
iter:   2  20:28:40         -0.87   -77.717682    4      3      
iter:   3  20:28:41         -0.93   -77.294021    3      3      
iter:   4  20:28:42         -0.98   -76.702744    4      3      
iter:   5  20:28:43         -1.13   -76.552906    3      3      
iter:   6  20:28:44         -1.28   -76.474310    4      3      
iter:   7  20:28:45         -1.55   -76.386167    4      3      
iter:   8  20:28:46         -1.81   -76.366221    3      2      
iter:   9  20:28:47         -1.91   -76.356099    3      2      
iter:  10  20:28:48         -2.04   -76.344859    3      2      
iter:  11  20:28:49         -2.24   -76.343433    3      2      
iter:  12  20:28:49         -2.32   -76.344055    3      2      
iter:  13  20:28:50         -2.55   -76.341780    3      2      
iter:  14  20:28:51         -2.69   -76.343774    2      1      
iter:  15  20:28:52         -2.80   -76.340994    2      2      
iter:  16  20:28:53         -2.94   -76.340837    3      2      
iter:  17  20:28:54         -3.08   -76.340651    2      1      
iter:  18  20:28:55         -3.49   -76.340319    2      1      
iter:  19  20:28:55         -3.55   -76.340423    2      1      
iter:  20  20:28:56         -3.60   -76.340425    2      1      
iter:  21  20:28:57         -3.67   -76.340657    2      1      
iter:  22  20:28:58         -3.88   -76.340847    2      1      
iter:  23  20:28:59         -3.93   -76.340524    2      1      
iter:  24  20:29:00         -4.01   -76.340885    2      1      

Converged after 24 iterations.

Dipole moment: (0.209357, -0.648087, 0.089802) |e|*Ang

Energy contributions relative to reference atoms: (reference = -13359.165501)

Kinetic:        +16.615547
Potential:      -28.782574
External:        +0.000000
XC:             -65.352372
Entropy (-ST):   -0.323968
Local:           +1.340498
--------------------------
Free energy:    -76.502868
Extrapolated:   -76.340885

Fermi level: -6.17273

 Band  Eigenvalues  Occupancy
    0    -25.27084    2.00000
    1    -21.05970    2.00000
    2    -20.94818    2.00000
    3    -19.35507    2.00000
    4    -18.19590    2.00000
    5    -17.97965    2.00000
    6    -17.46007    2.00000
    7    -16.07978    2.00000
    8    -12.85691    2.00000
    9    -12.77361    2.00000
   10    -12.00473    2.00000
   11    -11.60916    2.00000
   12    -10.55557    2.00000
   13    -10.24762    2.00000
   14     -9.67946    2.00000
   15     -8.88748    2.00000
   16     -8.87433    2.00000
   17     -8.39096    2.00000
   18     -8.10768    2.00000
   19     -8.09657    2.00000
   20     -8.05107    2.00000
   21     -7.68026    2.00000
   22     -7.26436    1.99996
   23     -6.68590    1.98826
   24     -6.41354    1.83488
   25     -6.27422    1.46795
   26     -6.10610    0.67863
   27     -5.75515    0.03026
   28     -5.12468    0.00006
   29     -4.81038    0.00000
   30     -4.56649    0.00000
   31     -3.75732    0.00000
   32     -3.20084    0.00000
   33     -2.56478    0.00000
   34     -2.41341    0.00000
   35     -1.81684    0.00000
   36     -1.31135    0.00000
   37     -0.90439    0.00000
   38     -0.68616    0.00000
   39     -0.38949    0.00000
   40     -0.36414    0.00000
   41      0.81433    0.00000
   42      3.05428    0.00000
   43      4.53051    0.00000
   44      5.18888    0.00000
   45      5.37835    0.00000
   46      6.25441    0.00000
   47      7.16502    0.00000
   48      7.58567    0.00000
   49      7.83392    0.00000
   50      8.03012    0.00000
   51      8.24726    0.00000
   52      8.37175    0.00000
   53      8.60778    0.00000
   54      8.82181    0.00000
   55      8.86617    0.00000
   56      9.24271    0.00000
   57      9.34255    0.00000
   58      9.42762    0.00000
   59      9.79389    0.00000
   60      9.84958    0.00000
   61      9.85895    0.00000
   62     10.02781    0.00000
   63     10.33684    0.00000
   64     10.62951    0.00000
   65     10.65324    0.00000
   66     11.22785    0.00000
   67     11.32464    0.00000
   68     11.44338    0.00000
   69     11.49257    0.00000
   70     11.70903    0.00000
   71     11.76287    0.00000
   72     11.85158    0.00000
   73     12.10142    0.00000
   74     12.31454    0.00000
   75     12.47268    0.00000


Forces in eV/Ang:
  0 C    -4.80297   -0.88042   -0.27625
  1 C     2.42913   -0.07617    0.13152
  2 C     0.39675   -0.73280    0.20005
  3 C     1.81356    4.14515    0.03392
  4 C    -4.78549    1.55794    0.20725
  5 C    -0.94803   -0.14598   -0.07976
  6 C     6.02461   -0.83122    0.57616
  7 C    -3.05165    0.19738   -0.12691
  8 C     5.72490   -0.37609   -0.38504
  9 C     2.55148   -0.84705    0.17548
 10 C    -2.73121   -3.93050   -0.17707
 11 C     1.07021   -2.54901    0.05561
 12 C    -3.70486    4.47448   -0.37946

System changes: positions 

Initializing position-dependent things.

Density initialized from wave functions
                .----------------------------------------------------------.  
               /|                                                          |  
              / |                                                          |  
             /  |                                                          |  
            /   |                                                          |  
           /    |                                                          |  
          /     |                                                          |  
         /      |                                                          |  
        /       |                                                          |  
       /        |                                                          |  
      /         |                                                          |  
     /          |                                                          |  
    /           |                                                          |  
   /            |                                                          |  
  /             |                                                          |  
 *              |                                                          |  
 |              |                 C                                        |  
 |              |                  C   C                                   |  
 |              |                     C    C  C C                          |  
 |              |                   C                                      |  
 |              |            C CC  C  C                                    |  
 |              |                                                          |  
 |              .----------------------------------------------------------.  
 |             /                                                          /   
 |            /                                                          /    
 |           /                                                          /     
 |          /                                                          /      
 |         /                                                          /       
 |        /                                                          /        
 |       /                                                          /         
 |      /                                                          /          
 |     /                                                          /           
 |    /                                                          /            
 |   /                                                          /             
 |  /                                                          /              
 | /                                                          /               
 |/                                                          /                
 *----------------------------------------------------------*                 

Positions:
   0 C     11.690194   14.654147    8.960393
   1 C     10.023298   10.475149    8.884497
   2 C      8.858954    9.687960    9.067102
   3 C     10.158417   14.726892    8.870494
   4 C     12.764899    8.836495    9.354680
   5 C     11.377893   10.499738    8.995071
   6 C     13.730099   13.090541    9.188088
   7 C      9.961806    8.935110    9.421099
   8 C     11.363939    8.948671    9.522076
   9 C     11.596759   13.306615    9.060207
  10 C     15.174051   12.987298    9.309468
  11 C      9.399171   15.855112    8.831644
  12 C     16.098970   11.885853    9.401894

Unit cell:
           periodic     x           y           z      points  spacing
  1. axis:    no    24.000000    0.000000    0.000000   120     0.2000
  2. axis:    no     0.000000   24.000000    0.000000   120     0.2000
  3. axis:    no     0.000000    0.000000   18.000000    88     0.2045

  Lengths:  24.000000  24.000000  18.000000
  Angles:   90.000000  90.000000  90.000000

Effective grid spacing dv^(1/3) = 0.2015

                     log10-error:    total        iterations:
           time      wfs    density  energy       fermi  poisson
iter:   1  20:29:02          +inf   -78.074673    3      5      
iter:   2  20:29:02         -1.40   -77.839810    3      2      
iter:   3  20:29:03         -1.66   -77.770658    3      2      
iter:   4  20:29:04         -1.77   -77.698701    3      2      
iter:   5  20:29:05         -1.97   -77.677473    3      2      
iter:   6  20:29:06         -2.17   -77.676872    2      2      
iter:   7  20:29:07         -2.23   -77.672039    3      2      
iter:   8  20:29:08         -2.44   -77.668925    3      2      
iter:   9  20:29:09         -2.60   -77.667749    2      1      
iter:  10  20:29:10         -2.77   -77.668083    2      1      
iter:  11  20:29:10         -2.96   -77.667877    2      1      
iter:  12  20:29:11         -3.11   -77.669932    2      1      
iter:  13  20:29:12         -3.26   -77.671380    2      1      
iter:  14  20:29:13         -3.32   -77.670618    2      1      
iter:  15  20:29:14         -3.41   -77.669672    2      1      
iter:  16  20:29:14         -3.53   -77.669377    2      1      
iter:  17  20:29:15         -3.90   -77.670729    2      1      
iter:  18  20:29:16         -3.65   -77.670392    2      1      
iter:  19  20:29:17         -4.09   -77.670526    2      1      

Converged after 19 iterations.

Dipole moment: (0.253968, -0.576899, 0.095982) |e|*Ang

Energy contributions relative to reference atoms: (reference = -13359.165501)

Kinetic:        +23.370841
Potential:      -34.288615
External:        +0.000000
XC:             -67.975834
Entropy (-ST):   -0.280785
Local:           +1.363473
--------------------------
Free energy:    -77.810919
Extrapolated:   -77.670526

Fermi level: -6.17622

 Band  Eigenvalues  Occupancy
    0    -25.17617    2.00000
    1    -21.18485    2.00000
    2    -21.11370    2.00000
    3    -19.90434    2.00000
    4    -18.35280    2.00000
    5    -18.17309    2.00000
    6    -17.28616    2.00000
    7    -16.48191    2.00000
    8    -13.05793    2.00000
    9    -12.76079    2.00000
   10    -12.03749    2.00000
   11    -11.54871    2.00000
   12    -10.53058    2.00000
   13    -10.21087    2.00000
   14     -9.68103    2.00000
   15     -8.99409    2.00000
   16     -8.69873    2.00000
   17     -8.54884    2.00000
   18     -8.45085    2.00000
   19     -8.23163    2.00000
   20     -8.15393    2.00000
   21     -7.68486    2.00000
   22     -7.22665    1.99995
   23     -6.73586    1.99261
   24     -6.46211    1.89156
   25     -6.30659    1.57293
   26     -6.06940    0.51151
   27     -5.76217    0.03133
   28     -5.19434    0.00011
   29     -4.87733    0.00000
   30     -4.21755    0.00000
   31     -3.50174    0.00000
   32     -3.00272    0.00000
   33     -2.31362    0.00000
   34     -2.30034    0.00000
   35     -1.81779    0.00000
   36     -1.40247    0.00000
   37     -0.64655    0.00000
   38     -0.60702    0.00000
   39     -0.30512    0.00000
   40     -0.02761    0.00000
   41      0.81663    0.00000
   42      3.16309    0.00000
   43      5.13022    0.00000
   44      5.28645    0.00000
   45      6.04663    0.00000
   46      6.83116    0.00000
   47      7.23945    0.00000
   48      7.82262    0.00000
   49      8.08155    0.00000
   50      8.25679    0.00000
   51      8.35078    0.00000
   52      8.55377    0.00000
   53      8.74993    0.00000
   54      8.84346    0.00000
   55      9.02186    0.00000
   56      9.31601    0.00000
   57      9.35889    0.00000
   58      9.47914    0.00000
   59      9.76638    0.00000
   60      9.88546    0.00000
   61      9.95624    0.00000
   62     10.02227    0.00000
   63     10.30638    0.00000
   64     10.62765    0.00000
   65     10.67687    0.00000
   66     11.31157    0.00000
   67     11.35788    0.00000
   68     11.53006    0.00000
   69     11.75386    0.00000
   70     11.77040    0.00000
   71     11.84847    0.00000
   72     11.93078    0.00000
   73     12.16185    0.00000
   74     12.35052    0.00000
   75     12.60581    0.00000


Forces in eV/Ang:
  0 C    -4.93708   -0.97908   -0.27442
  1 C     1.91519   -0.16996    0.12312
  2 C     0.23217   -0.51420    0.09414
  3 C     2.33737    3.37501    0.06122
  4 C    -3.03704    1.24836    0.07679
  5 C    -0.55426   -0.21369    0.00367
  6 C     4.83493   -0.78019    0.47766
  7 C    -0.79654   -0.03594    0.13450
  8 C     2.00302    0.07877   -0.51175
  9 C     3.06764   -1.12378    0.21935
 10 C    -2.42180   -3.02143   -0.16028
 11 C     0.31072   -1.42082    0.01983
 12 C    -3.03495    3.52955   -0.29856

System changes: positions 

Initializing position-dependent things.

Density initialized from wave functions
                .----------------------------------------------------------.  
               /|                                                          |  
              / |                                                          |  
             /  |                                                          |  
            /   |                                                          |  
           /    |                                                          |  
          /     |                                                          |  
         /      |                                                          |  
        /       |                                                          |  
       /        |                                                          |  
      /         |                                                          |  
     /          |                                                          |  
    /           |                                                          |  
   /            |                                                          |  
  /             |                                                          |  
 *              |                                                          |  
 |              |                 C                                        |  
 |              |                  C   C                                   |  
 |              |                     C    C  C C                          |  
 |              |                   C                                      |  
 |              |            C CC  C  C                                    |  
 |              |                                                          |  
 |              .----------------------------------------------------------.  
 |             /                                                          /   
 |            /                                                          /    
 |           /                                                          /     
 |          /                                                          /      
 |         /                                                          /       
 |        /                                                          /        
 |       /                                                          /         
 |      /                                                          /          
 |     /                                                          /           
 |    /                                                          /            
 |   /                                                          /             
 |  /                                                          /              
 | /                                                          /               
 |/                                                          /                
 *----------------------------------------------------------*                 

Positions:
   0 C     11.651039   14.646259    8.958233
   1 C     10.037522   10.473649    8.885453
   2 C      8.860504    9.684278    9.067663
   3 C     10.177739   14.752190    8.871023
   4 C     12.743934    8.845810    9.355064
   5 C     11.374195   10.497938    8.995242
   6 C     13.766192   13.084476    9.191686
   7 C      9.959370    8.934428    9.422605
   8 C     11.373387    8.950067    9.517826
   9 C     11.621826   13.297282    9.062011
  10 C     15.155483   12.965025    9.308233
  11 C      9.400327   15.845833    8.831739
  12 C     16.076183   11.912070    9.399678

Unit cell:
           periodic     x           y           z      points  spacing
  1. axis:    no    24.000000    0.000000    0.000000   120     0.2000
  2. axis:    no     0.000000   24.000000    0.000000   120     0.2000
  3. axis:    no     0.000000    0.000000   18.000000    88     0.2045

  Lengths:  24.000000  24.000000  18.000000
  Angles:   90.000000  90.000000  90.000000

Effective grid spacing dv^(1/3) = 0.2015

                     log10-error:    total        iterations:
           time      wfs    density  energy       fermi  poisson
iter:   1  20:29:19          +inf   -78.948062    3      5      
iter:   2  20:29:20         -1.45   -78.769403    3      2      
iter:   3  20:29:21         -1.71   -78.710570    3      2      
iter:   4  20:29:22         -1.82   -78.648190    3      2      
iter:   5  20:29:23         -2.05   -78.630644    3      2      
iter:   6  20:29:23         -2.27   -78.625189    2      1      
iter:   7  20:29:24         -2.32   -78.626470    2      2      
iter:   8  20:29:25         -2.54   -78.626348    3      2      
iter:   9  20:29:26         -2.68   -78.625523    2      2      
iter:  10  20:29:27         -2.86   -78.624764    2      2      
iter:  11  20:29:28         -3.09   -78.624251    2      1      
iter:  12  20:29:29         -3.17   -78.623595    2      1      
iter:  13  20:29:29         -3.36   -78.625653    2      1      
iter:  14  20:29:30         -3.46   -78.626363    2      1      
iter:  15  20:29:31         -3.66   -78.624982    2      1      
iter:  16  20:29:32         -3.84   -78.625323    2      1      
iter:  17  20:29:33         -3.96   -78.625367    2      1      
iter:  18  20:29:33         -4.10   -78.625295    2      1      

Converged after 18 iterations.

Dipole moment: (0.318532, -0.496608, 0.098681) |e|*Ang

Energy contributions relative to reference atoms: (reference = -13359.165501)

Kinetic:        +31.042775
Potential:      -40.388771
External:        +0.000000
XC:             -70.546719
Entropy (-ST):   -0.222445
Local:           +1.378642
--------------------------
Free energy:    -78.736518
Extrapolated:   -78.625295

Fermi level: -6.13846

 Band  Eigenvalues  Occupancy
    0    -25.12078    2.00000
    1    -21.32984    2.00000
    2    -21.15711    2.00000
    3    -20.42840    2.00000
    4    -18.43139    2.00000
    5    -18.29397    2.00000
    6    -17.19871    2.00000
    7    -16.88418    2.00000
    8    -13.37880    2.00000
    9    -12.68892    2.00000
   10    -12.04524    2.00000
   11    -11.50296    2.00000
   12    -10.51193    2.00000
   13    -10.18816    2.00000
   14     -9.72093    2.00000
   15     -9.14468    2.00000
   16     -8.81753    2.00000
   17     -8.77848    2.00000
   18     -8.56412    2.00000
   19     -8.29849    2.00000
   20     -8.14523    2.00000
   21     -7.67031    2.00000
   22     -7.18657    1.99994
   23     -6.78042    1.99675
   24     -6.48274    1.93803
   25     -6.30747    1.68846
   26     -5.98501    0.35467
   27     -5.68784    0.02184
   28     -5.25932    0.00030
   29     -4.94951    0.00001
   30     -4.01446    0.00000
   31     -3.31237    0.00000
   32     -2.86325    0.00000
   33     -2.21751    0.00000
   34     -2.08200    0.00000
   35     -1.89426    0.00000
   36     -1.44685    0.00000
   37     -0.50606    0.00000
   38     -0.30430    0.00000
   39     -0.18861    0.00000
   40      0.30017    0.00000
   41      0.94134    0.00000
   42      3.27232    0.00000
   43      5.31528    0.00000
   44      5.88071    0.00000
   45      6.55511    0.00000
   46      7.10117    0.00000
   47      7.35024    0.00000
   48      7.95178    0.00000
   49      8.12554    0.00000
   50      8.27276    0.00000
   51      8.56761    0.00000
   52      8.63376    0.00000
   53      8.76629    0.00000
   54      8.92703    0.00000
   55      9.23347    0.00000
   56      9.28139    0.00000
   57      9.43913    0.00000
   58      9.60082    0.00000
   59      9.73864    0.00000
   60      9.93738    0.00000
   61     10.05482    0.00000
   62     10.14145    0.00000
   63     10.30240    0.00000
   64     10.59565    0.00000
   65     10.81247    0.00000
   66     11.35092    0.00000
   67     11.39638    0.00000
   68     11.56857    0.00000
   69     11.76679    0.00000
   70     11.76879    0.00000
   71     11.99807    0.00000
   72     12.18304    0.00000
   73     12.38726    0.00000
   74     12.46082    0.00000
   75     12.64988    0.00000


Forces in eV/Ang:
  0 C    -4.66965   -1.26430   -0.24192
  1 C     1.17919   -0.20896    0.08521
  2 C     0.41186   -0.43920    0.08783
  3 C     2.25463    3.00769    0.05105
  4 C    -1.94236    1.18968   -0.04238
  5 C     0.01302   -0.18624    0.04594
  6 C     3.00773   -0.56944    0.33060
  7 C    -0.53259   -0.04366    0.16685
  8 C     0.60999    0.09064   -0.38840
  9 C     3.67763   -1.23582    0.26894
 10 C    -1.76401   -2.10951   -0.12717
 11 C    -0.19708   -0.69247   -0.01283
 12 C    -2.20557    2.47427   -0.21844

System changes: positions 

Initializing position-dependent things.

Density initialized from wave functions
                .----------------------------------------------------------.  
               /|                                                          |  
              / |                                                          |  
             /  |                                                          |  
            /   |                                                          |  
           /    |                                                          |  
          /     |                                                          |  
         /      |                                                          |  
        /       |                                                          |  
       /        |                                                          |  
      /         |                                                          |  
     /          |                                                          |  
    /           |                                                          |  
   /            |                                                          |  
  /             |                                                          |  
 *              |                                                          |  
 |              |                 C                                        |  
 |              |                  C   C                                   |  
 |              |                     C    C  C C                          |  
 |              |                   C                                      |  
 |              |            C CC  C  C                                    |  
 |              |                                                          |  
 |              .----------------------------------------------------------.  
 |             /                                                          /   
 |            /                                                          /    
 |           /                                                          /     
 |          /                                                          /      
 |         /                                                          /       
 |        /                                                          /        
 |       /                                                          /         
 |      /                                                          /          
 |     /                                                          /           
 |    /                                                          /            
 |   /                                                          /             
 |  /                                                          /              
 | /                                                          /               
 |/                                                          /                
 *----------------------------------------------------------*                 

Positions:
   0 C     11.612675   14.635103    8.956284
   1 C     10.045847   10.471836    8.886083
   2 C      8.864361    9.680739    9.068401
   3 C     10.196284   14.776622    8.871422
   4 C     12.729808    8.855664    9.354473
   5 C     11.375472   10.496455    8.995703
   6 C     13.787516   13.080175    9.194142
   7 C      9.955111    8.934088    9.424023
   8 C     11.376085    8.950771    9.514875
   9 C     11.653757   13.286773    9.064356
  10 C     15.142142   12.949251    9.307241
  11 C      9.397706   15.841447    8.831567
  12 C     16.059469   11.930582    9.398016

Unit cell:
           periodic     x           y           z      points  spacing
  1. axis:    no    24.000000    0.000000    0.000000   120     0.2000
  2. axis:    no     0.000000   24.000000    0.000000   120     0.2000
  3. axis:    no     0.000000    0.000000   18.000000    88     0.2045

  Lengths:  24.000000  24.000000  18.000000
  Angles:   90.000000  90.000000  90.000000

Effective grid spacing dv^(1/3) = 0.2015

                     log10-error:    total        iterations:
           time      wfs    density  energy       fermi  poisson
iter:   1  20:29:35          +inf   -79.480161    2      5      
iter:   2  20:29:36         -1.55   -79.376391    3      2      
iter:   3  20:29:37         -1.84   -79.345331    2      2      
iter:   4  20:29:38         -1.97   -79.315177    3      2      
iter:   5  20:29:39         -2.21   -79.309188    3      2      
iter:   6  20:29:40         -2.37   -79.308048    3      2      
iter:   7  20:29:41         -2.47   -79.306458    2      2      
iter:   8  20:29:42         -2.65   -79.306008    3      2      
iter:   9  20:29:43         -2.85   -79.303153    2      1      
iter:  10  20:29:43         -2.96   -79.301821    2      1      
iter:  11  20:29:44         -3.14   -79.302920    2      1      
iter:  12  20:29:45         -3.36   -79.304772    2      1      
iter:  13  20:29:46         -3.46   -79.306682    2      1      
iter:  14  20:29:47         -3.56   -79.307131    2      1      
iter:  15  20:29:47         -3.70   -79.305008    2      1      
iter:  16  20:29:48         -3.83   -79.305992    2      1      
iter:  17  20:29:49         -3.95   -79.305962    2      1      
iter:  18  20:29:50         -4.04   -79.305662    2      1      

Converged after 18 iterations.

Dipole moment: (0.356192, -0.438423, 0.099810) |e|*Ang

Energy contributions relative to reference atoms: (reference = -13359.165501)

Kinetic:        +36.851533
Potential:      -44.953690
External:        +0.000000
XC:             -72.508890
Entropy (-ST):   -0.167962
Local:           +1.389366
--------------------------
Free energy:    -79.389644
Extrapolated:   -79.305662

Fermi level: -6.09411

 Band  Eigenvalues  Occupancy
    0    -25.09198    2.00000
    1    -21.44941    2.00000
    2    -21.18845    2.00000
    3    -20.79536    2.00000
    4    -18.45125    2.00000
    5    -18.38030    2.00000
    6    -17.18325    2.00000
    7    -17.12630    2.00000
    8    -13.76503    2.00000
    9    -12.66342    2.00000
   10    -12.03229    2.00000
   11    -11.47123    2.00000
   12    -10.52958    2.00000
   13    -10.20157    2.00000
   14     -9.77569    2.00000
   15     -9.30526    2.00000
   16     -9.04445    2.00000
   17     -9.00434    2.00000
   18     -8.48929    2.00000
   19     -8.31647    2.00000
   20     -8.12673    2.00000
   21     -7.66324    2.00000
   22     -7.14920    1.99995
   23     -6.81261    1.99849
   24     -6.48127    1.95920
   25     -6.31168    1.79609
   26     -5.89056    0.23105
   27     -5.60149    0.01440
   28     -5.31015    0.00079
   29     -5.01865    0.00004
   30     -3.87032    0.00000
   31     -3.16278    0.00000
   32     -2.78174    0.00000
   33     -2.15651    0.00000
   34     -1.99532    0.00000
   35     -1.87350    0.00000
   36     -1.43634    0.00000
   37     -0.42833    0.00000
   38     -0.09282    0.00000
   39     -0.08437    0.00000
   40      0.61573    0.00000
   41      1.03307    0.00000
   42      3.34484    0.00000
   43      5.36734    0.00000
   44      6.50089    0.00000
   45      6.73557    0.00000
   46      7.28581    0.00000
   47      7.49898    0.00000
   48      8.03311    0.00000
   49      8.17993    0.00000
   50      8.27689    0.00000
   51      8.59333    0.00000
   52      8.67901    0.00000
   53      8.77162    0.00000
   54      8.99008    0.00000
   55      9.25380    0.00000
   56      9.34268    0.00000
   57      9.56690    0.00000
   58      9.67878    0.00000
   59      9.72343    0.00000
   60      9.97553    0.00000
   61     10.14592    0.00000
   62     10.24199    0.00000
   63     10.33742    0.00000
   64     10.58096    0.00000
   65     10.94791    0.00000
   66     11.33598    0.00000
   67     11.45403    0.00000
   68     11.57679    0.00000
   69     11.72672    0.00000
   70     11.77950    0.00000
   71     12.08384    0.00000
   72     12.24098    0.00000
   73     12.45056    0.00000
   74     12.72188    0.00000
   75     12.82560    0.00000


Forces in eV/Ang:
  0 C    -3.91668   -1.63585   -0.18000
  1 C     0.91959   -0.18964    0.03261
  2 C     0.34301   -0.32175    0.05055
  3 C     1.68243    2.83569   -0.00341
  4 C    -1.27606    1.14042   -0.12961
  5 C     0.22785   -0.16372    0.06553
  6 C     1.35607   -0.31367    0.20386
  7 C    -0.22591   -0.17165    0.24563
  8 C    -0.27026    0.06592   -0.30955
  9 C     4.28426   -1.24823    0.27732
 10 C    -1.36044   -1.34275   -0.10391
 11 C    -0.51094   -0.21297   -0.03880
 12 C    -1.41050    1.56032   -0.13295

System changes: positions 

Initializing position-dependent things.

Density initialized from wave functions
                .----------------------------------------------------------.  
               /|                                                          |  
              / |                                                          |  
             /  |                                                          |  
            /   |                                                          |  
           /    |                                                          |  
          /     |                                                          |  
         /      |                                                          |  
        /       |                                                          |  
       /        |                                                          |  
      /         |                                                          |  
     /          |                                                          |  
    /           |                                                          |  
   /            |                                                          |  
  /             |                                                          |  
 *              |                                                          |  
 |              |                 C                                        |  
 |              |                  C   C                                   |  
 |              |                     C    C  C C                          |  
 |              |                   C                                      |  
 |              |            C CC  C  C                                    |  
 |              |                                                          |  
 |              .----------------------------------------------------------.  
 |             /                                                          /   
 |            /                                                          /    
 |           /                                                          /     
 |          /                                                          /      
 |         /                                                          /       
 |        /                                                          /        
 |       /                                                          /         
 |      /                                                          /          
 |     /                                                          /           
 |    /                                                          /            
 |   /                                                          /             
 |  /                                                          /              
 | /                                                          /               
 |/                                                          /                
 *----------------------------------------------------------*                 

Positions:
   0 C     11.579215   14.620112    8.954780
   1 C     10.054198   10.470281    8.886301
   2 C      8.867430    9.677848    9.068894
   3 C     10.209792   14.802326    8.871278
   4 C     12.717694    8.866021    9.353325
   5 C     11.377378   10.495100    8.996229
   6 C     13.798297   13.077725    9.195863
   7 C      9.951359    8.932585    9.426072
   8 C     11.376094    8.950869    9.512361
   9 C     11.692190   13.275956    9.066782
  10 C     15.130322   12.937555    9.306335
  11 C      9.393475   15.839127    8.831220
  12 C     16.047463   11.944026    9.396884

Unit cell:
           periodic     x           y           z      points  spacing
  1. axis:    no    24.000000    0.000000    0.000000   120     0.2000
  2. axis:    no     0.000000   24.000000    0.000000   120     0.2000
  3. axis:    no     0.000000    0.000000   18.000000    88     0.2045

  Lengths:  24.000000  24.000000  18.000000
  Angles:   90.000000  90.000000  90.000000

Effective grid spacing dv^(1/3) = 0.2015

                     log10-error:    total        iterations:
           time      wfs    density  energy       fermi  poisson
iter:   1  20:29:52          +inf   -79.940592    2      5      
iter:   2  20:29:53         -1.69   -79.889246    3      2      
iter:   3  20:29:54         -1.93   -79.868954    2      2      
iter:   4  20:29:55         -2.11   -79.857611    3      2      
iter:   5  20:29:56         -2.31   -79.854443    3      2      
iter:   6  20:29:56         -2.44   -79.853227    2      2      
iter:   7  20:29:57         -2.60   -79.853251    2      2      
iter:   8  20:29:58         -2.74   -79.852505    2      2      
iter:   9  20:29:59         -2.97   -79.850055    2      1      
iter:  10  20:30:00         -3.09   -79.851338    2      1      
iter:  11  20:30:01         -3.20   -79.851202    2      1      
iter:  12  20:30:02         -3.48   -79.852097    2      1      
iter:  13  20:30:02         -3.55   -79.854409    2      1      
iter:  14  20:30:03         -3.72   -79.853637    2      1      
iter:  15  20:30:04         -3.95   -79.852827    2      1      
iter:  16  20:30:05         -4.03   -79.853093    2      1      

Converged after 16 iterations.

Dipole moment: (0.389488, -0.405795, 0.100784) |e|*Ang

Energy contributions relative to reference atoms: (reference = -13359.165501)

Kinetic:        +41.214933
Potential:      -48.376214
External:        +0.000000
XC:             -74.042085
Entropy (-ST):   -0.121287
Local:           +1.410916
--------------------------
Free energy:    -79.913737
Extrapolated:   -79.853093

Fermi level: -6.07167

 Band  Eigenvalues  Occupancy
    0    -25.07319    2.00000
    1    -21.50860    2.00000
    2    -21.21712    2.00000
    3    -21.05536    2.00000
    4    -18.51321    2.00000
    5    -18.43822    2.00000
    6    -17.41268    2.00000
    7    -17.08509    2.00000
    8    -14.15804    2.00000
    9    -12.65196    2.00000
   10    -12.03272    2.00000
   11    -11.45335    2.00000
   12    -10.62820    2.00000
   13    -10.22346    2.00000
   14     -9.80659    2.00000
   15     -9.45521    2.00000
   16     -9.22689    2.00000
   17     -9.15830    2.00000
   18     -8.45141    2.00000
   19     -8.32011    2.00000
   20     -8.11357    2.00000
   21     -7.66466    2.00000
   22     -7.11365    1.99994
   23     -6.82702    1.99895
   24     -6.49190    1.97052
   25     -6.34323    1.87589
   26     -5.81727    0.14567
   27     -5.51046    0.00728
   28     -5.36076    0.00163
   29     -5.09572    0.00012
   30     -3.76232    0.00000
   31     -3.04635    0.00000
   32     -2.69820    0.00000
   33     -2.17285    0.00000
   34     -2.03481    0.00000
   35     -1.65770    0.00000
   36     -1.39780    0.00000
   37     -0.37656    0.00000
   38     -0.01814    0.00000
   39      0.05171    0.00000
   40      0.92289    0.00000
   41      1.10783    0.00000
   42      3.39259    0.00000
   43      5.39295    0.00000
   44      6.72102    0.00000
   45      6.98193    0.00000
   46      7.39130    0.00000
   47      7.64340    0.00000
   48      8.06900    0.00000
   49      8.22053    0.00000
   50      8.28358    0.00000
   51      8.57084    0.00000
   52      8.69607    0.00000
   53      8.79409    0.00000
   54      9.04052    0.00000
   55      9.23688    0.00000
   56      9.39366    0.00000
   57      9.63372    0.00000
   58      9.70814    0.00000
   59      9.73716    0.00000
   60     10.00313    0.00000
   61     10.20612    0.00000
   62     10.34889    0.00000
   63     10.36952    0.00000
   64     10.60832    0.00000
   65     11.05619    0.00000
   66     11.34070    0.00000
   67     11.49766    0.00000
   68     11.56202    0.00000
   69     11.70276    0.00000
   70     11.79545    0.00000
   71     12.13500    0.00000
   72     12.29168    0.00000
   73     12.48904    0.00000
   74     12.81148    0.00000
   75     12.98019    0.00000


Forces in eV/Ang:
  0 C    -2.97067   -1.96703   -0.11084
  1 C     0.60326   -0.20376    0.01116
  2 C     0.34121   -0.20690    0.02031
  3 C     1.09602    2.48234   -0.02780
  4 C    -0.66325    1.11442   -0.18374
  5 C     0.45687   -0.15650    0.07998
  6 C    -0.07677   -0.03752    0.10368
  7 C    -0.03035   -0.23661    0.28329
  8 C    -0.93963    0.01461   -0.23774
  9 C     4.86669   -1.16831    0.30965
 10 C    -1.13967   -0.77407   -0.09629
 11 C    -0.84730    0.30306   -0.06209
 12 C    -0.76197    0.86051   -0.06708

System changes: positions 

Initializing position-dependent things.

Density initialized from wave functions
                .----------------------------------------------------------.  
               /|                                                          |  
              / |                                                          |  
             /  |                                                          |  
            /   |                                                          |  
           /    |                                                          |  
          /     |                                                          |  
         /      |                                                          |  
        /       |                                                          |  
       /        |                                                          |  
      /         |                                                          |  
     /          |                                                          |  
    /           |                                                          |  
   /            |                                                          |  
  /             |                                                          |  
 *              |                                                          |  
 |              |                 C                                        |  
 |              |                  C   C                                   |  
 |              |                     C    C  C C                          |  
 |              |                   C                                      |  
 |              |            C CC  C  C                                    |  
 |              |                                                          |  
 |              .----------------------------------------------------------.  
 |             /                                                          /   
 |            /                                                          /    
 |           /                                                          /     
 |          /                                                          /      
 |         /                                                          /       
 |        /                                                          /        
 |       /                                                          /         
 |      /                                                          /          
 |     /                                                          /           
 |    /                                                          /            
 |   /                                                          /             
 |  /                                                          /              
 | /                                                          /               
 |/                                                          /                
 *----------------------------------------------------------*                 

Positions:
   0 C     11.554253   14.604378    8.953801
   1 C     10.060882   10.468725    8.886492
   2 C      8.870289    9.675725    9.069215
   3 C     10.218512   14.824339    8.871063
   4 C     12.708327    8.875783    9.352165
   5 C     11.379874   10.493826    8.996726
   6 C     13.802191   13.077013    9.197099
   7 C      9.947827    8.930990    9.428015
   8 C     11.375118    8.950404    9.510344
   9 C     11.731049   13.266799    9.069252
  10 C     15.119322   12.928414    9.305450
  11 C      9.388113   15.839176    8.830800
  12 C     16.038861   11.954175    9.396081

Unit cell:
           periodic     x           y           z      points  spacing
  1. axis:    no    24.000000    0.000000    0.000000   120     0.2000
  2. axis:    no     0.000000   24.000000    0.000000   120     0.2000
  3. axis:    no     0.000000    0.000000   18.000000    88     0.2045

  Lengths:  24.000000  24.000000  18.000000
  Angles:   90.000000  90.000000  90.000000

Effective grid spacing dv^(1/3) = 0.2015

                     log10-error:    total        iterations:
           time      wfs    density  energy       fermi  poisson
iter:   1  20:30:07          +inf   -80.323834    2      5      
iter:   2  20:30:08         -1.87   -80.304118    2      2      
iter:   3  20:30:09         -2.04   -80.290901    2      2      
iter:   4  20:30:10         -2.32   -80.288889    2      2      
iter:   5  20:30:10         -2.43   -80.286777    3      2      
iter:   6  20:30:11         -2.58   -80.286537    2      2      
iter:   7  20:30:12         -2.79   -80.286221    2      1      
iter:   8  20:30:13         -2.93   -80.281993    2      1      
iter:   9  20:30:14         -3.10   -80.284690    2      1      
iter:  10  20:30:15         -3.22   -80.286108    2      1      
iter:  11  20:30:15         -3.48   -80.284421    2      1      
iter:  12  20:30:16         -3.59   -80.286621    2      1      
iter:  13  20:30:17         -3.67   -80.288146    2      1      
iter:  14  20:30:18         -3.83   -80.286896    2      1      
iter:  15  20:30:19         -3.91   -80.287223    2      1      
iter:  16  20:30:20         -4.00   -80.287785    2      1      

Converged after 16 iterations.

Dipole moment: (0.413436, -0.391432, 0.101309) |e|*Ang

Energy contributions relative to reference atoms: (reference = -13359.165501)

Kinetic:        +43.976344
Potential:      -50.520520
External:        +0.000000
XC:             -75.117726
Entropy (-ST):   -0.090992
Local:           +1.419613
--------------------------
Free energy:    -80.333280
Extrapolated:   -80.287785

Fermi level: -6.06564

 Band  Eigenvalues  Occupancy
    0    -25.06969    2.00000
    1    -21.52044    2.00000
    2    -21.24975    2.00000
    3    -21.22852    2.00000
    4    -18.58558    2.00000
    5    -18.46209    2.00000
    6    -17.58252    2.00000
    7    -17.06327    2.00000
    8    -14.48611    2.00000
    9    -12.65779    2.00000
   10    -12.03951    2.00000
   11    -11.44964    2.00000
   12    -10.80420    2.00000
   13    -10.22350    2.00000
   14     -9.81798    2.00000
   15     -9.57707    2.00000
   16     -9.35703    2.00000
   17     -9.25122    2.00000
   18     -8.43533    2.00000
   19     -8.31597    2.00000
   20     -8.11092    2.00000
   21     -7.66855    2.00000
   22     -7.08339    1.99992
   23     -6.82364    1.99898
   24     -6.50923    1.97659
   25     -6.38390    1.92035
   26     -5.76901    0.09795
   27     -5.43072    0.00349
   28     -5.39654    0.00248
   29     -5.16382    0.00024
   30     -3.68661    0.00000
   31     -2.96392    0.00000
   32     -2.60169    0.00000
   33     -2.23925    0.00000
   34     -2.02223    0.00000
   35     -1.44443    0.00000
   36     -1.33826    0.00000
   37     -0.35228    0.00000
   38      0.02998    0.00000
   39      0.14052    0.00000
   40      1.08883    0.00000
   41      1.23252    0.00000
   42      3.41997    0.00000
   43      5.40427    0.00000
   44      6.68175    0.00000
   45      7.25633    0.00000
   46      7.43837    0.00000
   47      7.75915    0.00000
   48      8.08179    0.00000
   49      8.22094    0.00000
   50      8.31229    0.00000
   51      8.54921    0.00000
   52      8.69334    0.00000
   53      8.81872    0.00000
   54      9.06708    0.00000
   55      9.23542    0.00000
   56      9.41676    0.00000
   57      9.63100    0.00000
   58      9.71146    0.00000
   59      9.76641    0.00000
   60     10.01945    0.00000
   61     10.21714    0.00000
   62     10.37317    0.00000
   63     10.44138    0.00000
   64     10.70032    0.00000
   65     11.13596    0.00000
   66     11.36525    0.00000
   67     11.52615    0.00000
   68     11.55077    0.00000
   69     11.68803    0.00000
   70     11.81473    0.00000
   71     12.16266    0.00000
   72     12.33924    0.00000
   73     12.51651    0.00000
   74     12.87792    0.00000
   75     13.03469    0.00000


Forces in eV/Ang:
  0 C    -2.07828   -2.24579   -0.00829
  1 C     0.39885   -0.21953    0.00924
  2 C     0.30943   -0.10084   -0.01003
  3 C     0.62373    2.16896   -0.05020
  4 C    -0.25576    1.11755   -0.25289
  5 C     0.59882   -0.16537    0.09795
  6 C    -1.25009    0.20653    0.00433
  7 C     0.15370   -0.29192    0.30648
  8 C    -1.45183   -0.02993   -0.18017
  9 C     5.28816   -1.07617    0.31370
 10 C    -1.06803   -0.37870   -0.09718
 11 C    -1.11955    0.67313   -0.07580
 12 C    -0.26882    0.35882   -0.01658

System changes: positions 

Initializing position-dependent things.

Density initialized from wave functions
                .----------------------------------------------------------.  
               /|                                                          |  
              / |                                                          |  
             /  |                                                          |  
            /   |                                                          |  
           /    |                                                          |  
          /     |                                                          |  
         /      |                                                          |  
        /       |                                                          |  
       /        |                                                          |  
      /         |                                                          |  
     /          |                                                          |  
    /           |                                                          |  
   /            |                                                          |  
  /             |                                                          |  
 *              |                                                          |  
 |              |                 C                                        |  
 |              |                  C  C                                    |  
 |              |                     C    C  C C                          |  
 |              |                   C                                      |  
 |              |            C CC  C  C                                    |  
 |              |                                                          |  
 |              .----------------------------------------------------------.  
 |             /                                                          /   
 |            /                                                          /    
 |           /                                                          /     
 |          /                                                          /      
 |         /                                                          /       
 |        /                                                          /        
 |       /                                                          /         
 |      /                                                          /          
 |     /                                                          /           
 |    /                                                          /            
 |   /                                                          /             
 |  /                                                          /              
 | /                                                          /               
 |/                                                          /                
 *----------------------------------------------------------*                 

Positions:
   0 C     11.534595   14.587976    8.953510
   1 C     10.067131   10.467106    8.886805
   2 C      8.872803    9.674116    9.069392
   3 C     10.224888   14.844338    8.870783
   4 C     12.699694    8.885528    9.350737
   5 C     11.382389   10.492449    8.997278
   6 C     13.802176   13.077402    9.197908
   7 C      9.944749    8.929292    9.429874
   8 C     11.373548    8.949641    9.508567
   9 C     11.770137   13.258628    9.071575
  10 C     15.107767   12.920070    9.304510
  11 C      9.382025   15.840148    8.830381
  12 C     16.031774   11.963135    9.395429

Unit cell:
           periodic     x           y           z      points  spacing
  1. axis:    no    24.000000    0.000000    0.000000   120     0.2000
  2. axis:    no     0.000000   24.000000    0.000000   120     0.2000
  3. axis:    no     0.000000    0.000000   18.000000    88     0.2045

  Lengths:  24.000000  24.000000  18.000000
  Angles:   90.000000  90.000000  90.000000

Effective grid spacing dv^(1/3) = 0.2015

                     log10-error:    total        iterations:
           time      wfs    density  energy       fermi  poisson
iter:   1  20:30:22          +inf   -80.707656    3      5      
iter:   2  20:30:22         -1.97   -80.693768    2      2      
iter:   3  20:30:23         -2.11   -80.683206    2      2      
iter:   4  20:30:24         -2.39   -80.681725    3      2      
iter:   5  20:30:25         -2.54   -80.681597    2      2      
iter:   6  20:30:26         -2.63   -80.680575    2      2      
iter:   7  20:30:27         -2.91   -80.681148    2      2      
iter:   8  20:30:28         -3.11   -80.680238    2      1      
iter:   9  20:30:29         -3.19   -80.678258    2      1      
iter:  10  20:30:29         -3.48   -80.680740    2      1      
iter:  11  20:30:30         -3.55   -80.681910    2      1      
iter:  12  20:30:31         -3.77   -80.681019    2      1      
iter:  13  20:30:32         -3.91   -80.681516    1      1      
iter:  14  20:30:33         -3.96   -80.681701    2      1      
iter:  15  20:30:34         -4.04   -80.681022    2      1      

Converged after 15 iterations.

Dipole moment: (0.431819, -0.385589, 0.101694) |e|*Ang

Energy contributions relative to reference atoms: (reference = -13359.165501)

Kinetic:        +45.838408
Potential:      -51.946776
External:        +0.000000
XC:             -75.961841
Entropy (-ST):   -0.070780
Local:           +1.424577
--------------------------
Free energy:    -80.716412
Extrapolated:   -80.681022

Fermi level: -6.07017

 Band  Eigenvalues  Occupancy
    0    -25.07671    2.00000
    1    -21.52336    2.00000
    2    -21.33985    2.00000
    3    -21.28755    2.00000
    4    -18.65074    2.00000
    5    -18.48667    2.00000
    6    -17.71985    2.00000
    7    -17.05615    2.00000
    8    -14.77177    2.00000
    9    -12.67040    2.00000
   10    -12.05319    2.00000
   11    -11.45622    2.00000
   12    -11.02763    2.00000
   13    -10.21689    2.00000
   14     -9.82577    2.00000
   15     -9.68173    2.00000
   16     -9.44910    2.00000
   17     -9.31195    2.00000
   18     -8.42590    2.00000
   19     -8.31118    2.00000
   20     -8.11583    2.00000
   21     -7.67049    2.00000
   22     -7.05874    1.99990
   23     -6.81156    1.99880
   24     -6.53551    1.98112
   25     -6.42858    1.94597
   26     -5.73668    0.06878
   27     -5.43824    0.00360
   28     -5.34618    0.00143
   29     -5.21859    0.00040
   30     -3.62819    0.00000
   31     -2.89827    0.00000
   32     -2.49405    0.00000
   33     -2.30908    0.00000
   34     -1.99791    0.00000
   35     -1.25917    0.00000
   36     -1.22114    0.00000
   37     -0.33974    0.00000
   38      0.06427    0.00000
   39      0.21177    0.00000
   40      1.12869    0.00000
   41      1.42626    0.00000
   42      3.43724    0.00000
   43      5.40794    0.00000
   44      6.62002    0.00000
   45      7.41033    0.00000
   46      7.46535    0.00000
   47      7.85825    0.00000
   48      8.08998    0.00000
   49      8.20651    0.00000
   50      8.33854    0.00000
   51      8.53654    0.00000
   52      8.68903    0.00000
   53      8.84005    0.00000
   54      9.07608    0.00000
   55      9.24450    0.00000
   56      9.42460    0.00000
   57      9.61142    0.00000
   58      9.69172    0.00000
   59      9.79441    0.00000
   60     10.02949    0.00000
   61     10.21578    0.00000
   62     10.36315    0.00000
   63     10.48789    0.00000
   64     10.83208    0.00000
   65     11.19539    0.00000
   66     11.40424    0.00000
   67     11.52514    0.00000
   68     11.57778    0.00000
   69     11.67740    0.00000
   70     11.83463    0.00000
   71     12.17832    0.00000
   72     12.38984    0.00000
   73     12.54028    0.00000
   74     12.91234    0.00000
   75     13.04218    0.00000


Forces in eV/Ang:
  0 C    -1.32650   -2.49427    0.04378
  1 C     0.21755   -0.23532    0.00927
  2 C     0.28901   -0.00358   -0.03409
  3 C     0.30705    1.89727   -0.08909
  4 C     0.12549    1.13946   -0.30446
  5 C     0.74641   -0.18221    0.10572
  6 C    -2.30460    0.42923   -0.08606
  7 C     0.29802   -0.33041    0.31744
  8 C    -1.89256   -0.07627   -0.12002
  9 C     5.69095   -0.96076    0.33507
 10 C    -1.02996   -0.08121   -0.09014
 11 C    -1.33681    0.96179   -0.08671
 12 C     0.13467   -0.04061    0.02413

System changes: positions 

Initializing position-dependent things.

Density initialized from wave functions
                .----------------------------------------------------------.  
               /|                                                          |  
              / |                                                          |  
             /  |                                                          |  
            /   |                                                          |  
           /    |                                                          |  
          /     |                                                          |  
         /      |                                                          |  
        /       |                                                          |  
       /        |                                                          |  
      /         |                                                          |  
     /          |                                                          |  
    /           |                                                          |  
   /            |                                                          |  
  /             |                                                          |  
 *              |                                                          |  
 |              |                 C                                        |  
 |              |                  C  C                                    |  
 |              |                     C    C  C C                          |  
 |              |                   C                                      |  
 |              |            C CC  C  C                                    |  
 |              |                                                          |  
 |              .----------------------------------------------------------.  
 |             /                                                          /   
 |            /                                                          /    
 |           /                                                          /     
 |          /                                                          /      
 |         /                                                          /       
 |        /                                                          /        
 |       /                                                          /         
 |      /                                                          /          
 |     /                                                          /           
 |    /                                                          /            
 |   /                                                          /             
 |  /                                                          /              
 | /                                                          /               
 |/                                                          /                
 *----------------------------------------------------------*                 

Positions:
   0 C     11.517644   14.571280    8.953267
   1 C     10.073085   10.465451    8.887192
   2 C      8.875177    9.672827    9.069512
   3 C     10.230764   14.863166    8.870309
   4 C     12.691726    8.895357    9.349252
   5 C     11.385096   10.490953    8.997789
   6 C     13.799822   13.078452    9.198456
   7 C      9.941789    8.927631    9.431601
   8 C     11.371730    8.948661    9.507013
   9 C     11.809392   13.251323    9.073954
  10 C     15.095807   12.911820    9.303612
  11 C      9.375763   15.841319    8.829971
  12 C     16.025324   11.971711    9.394834

Unit cell:
           periodic     x           y           z      points  spacing
  1. axis:    no    24.000000    0.000000    0.000000   120     0.2000
  2. axis:    no     0.000000   24.000000    0.000000   120     0.2000
  3. axis:    no     0.000000    0.000000   18.000000    88     0.2045

  Lengths:  24.000000  24.000000  18.000000
  Angles:   90.000000  90.000000  90.000000

Effective grid spacing dv^(1/3) = 0.2015

                     log10-error:    total        iterations:
           time      wfs    density  energy       fermi  poisson
iter:   1  20:30:36          +inf   -81.091259    3      5      
iter:   2  20:30:37         -2.00   -81.076794    2      2      
iter:   3  20:30:37         -2.14   -81.066093    2      2      
iter:   4  20:30:38         -2.40   -81.064238    3      2      
iter:   5  20:30:39         -2.57   -81.063932    2      2      
iter:   6  20:30:40         -2.70   -81.063487    2      2      
iter:   7  20:30:41         -2.88   -81.063714    2      2      
iter:   8  20:30:42         -3.14   -81.063292    2      1      
iter:   9  20:30:43         -3.21   -81.062854    2      1      
iter:  10  20:30:44         -3.43   -81.063437    2      1      
iter:  11  20:30:44         -3.53   -81.062559    2      1      
iter:  12  20:30:45         -3.70   -81.063249    2      1      
iter:  13  20:30:46         -3.84   -81.064442    2      1      
iter:  14  20:30:47         -4.04   -81.064152    1      1      

Converged after 14 iterations.

Dipole moment: (0.443552, -0.380038, 0.101615) |e|*Ang

Energy contributions relative to reference atoms: (reference = -13359.165501)

Kinetic:        +47.163777
Potential:      -52.950895
External:        +0.000000
XC:             -76.680775
Entropy (-ST):   -0.056535
Local:           +1.432008
--------------------------
Free energy:    -81.092419
Extrapolated:   -81.064152

Fermi level: -6.07938

 Band  Eigenvalues  Occupancy
    0    -25.08785    2.00000
    1    -21.56450    2.00000
    2    -21.38260    2.00000
    3    -21.32521    2.00000
    4    -18.71380    2.00000
    5    -18.50950    2.00000
    6    -17.83790    2.00000
    7    -17.05298    2.00000
    8    -15.03611    2.00000
    9    -12.68540    2.00000
   10    -12.06750    2.00000
   11    -11.46831    2.00000
   12    -11.28015    2.00000
   13    -10.21632    2.00000
   14     -9.83547    2.00000
   15     -9.77659    2.00000
   16     -9.51266    2.00000
   17     -9.36073    2.00000
   18     -8.41529    2.00000
   19     -8.30336    2.00000
   20     -8.12137    2.00000
   21     -7.67056    2.00000
   22     -7.03851    1.99986
   23     -6.79872    1.99850
   24     -6.57053    1.98538
   25     -6.47182    1.96125
   26     -5.71183    0.04942
   27     -5.46353    0.00422
   28     -5.32045    0.00101
   29     -5.21392    0.00035
   30     -3.57591    0.00000
   31     -2.83858    0.00000
   32     -2.39864    0.00000
   33     -2.36178    0.00000
   34     -1.96154    0.00000
   35     -1.15789    0.00000
   36     -0.99188    0.00000
   37     -0.33315    0.00000
   38      0.09225    0.00000
   39      0.27727    0.00000
   40      1.14800    0.00000
   41      1.60322    0.00000
   42      3.44928    0.00000
   43      5.40891    0.00000
   44      6.55095    0.00000
   45      7.42334    0.00000
   46      7.53592    0.00000
   47      7.93882    0.00000
   48      8.10051    0.00000
   49      8.19364    0.00000
   50      8.35611    0.00000
   51      8.53397    0.00000
   52      8.68878    0.00000
   53      8.85570    0.00000
   54      9.07466    0.00000
   55      9.25863    0.00000
   56      9.42352    0.00000
   57      9.58267    0.00000
   58      9.66398    0.00000
   59      9.81612    0.00000
   60     10.03712    0.00000
   61     10.20482    0.00000
   62     10.35444    0.00000
   63     10.51603    0.00000
   64     10.96914    0.00000
   65     11.23679    0.00000
   66     11.44936    0.00000
   67     11.53381    0.00000
   68     11.61670    0.00000
   69     11.67205    0.00000
   70     11.85579    0.00000
   71     12.19057    0.00000
   72     12.44350    0.00000
   73     12.56829    0.00000
   74     12.88426    0.00000
   75     13.02106    0.00000


Forces in eV/Ang:
  0 C    -0.62978   -2.77045    0.10219
  1 C     0.04628   -0.25112   -0.00002
  2 C     0.25807    0.09289   -0.06130
  3 C     0.04309    1.64549   -0.12017
  4 C     0.47622    1.15854   -0.34658
  5 C     0.87923   -0.20131    0.11808
  6 C    -3.29663    0.64904   -0.17150
  7 C     0.43022   -0.36649    0.32535
  8 C    -2.28415   -0.12540   -0.06054
  9 C     6.05133   -0.76922    0.33543
 10 C    -1.03506    0.17408   -0.09628
 11 C    -1.52804    1.18466   -0.09867
 12 C     0.51632   -0.38534    0.05116

System changes: positions 

Initializing position-dependent things.

Density initialized from wave functions
                .----------------------------------------------------------.  
               /|                                                          |  
              / |                                                          |  
             /  |                                                          |  
            /   |                                                          |  
           /    |                                                          |  
          /     |                                                          |  
         /      |                                                          |  
        /       |                                                          |  
       /        |                                                          |  
      /         |                                                          |  
     /          |                                                          |  
    /           |                                                          |  
   /            |                                                          |  
  /             |                                                          |  
 *              |                                                          |  
 |              |                 C                                        |  
 |              |                  C  C                                    |  
 |              |                     C    C  C C                          |  
 |              |                   C                                      |  
 |              |            C CC  C  C                                    |  
 |              |                                                          |  
 |              .----------------------------------------------------------.  
 |             /                                                          /   
 |            /                                                          /    
 |           /                                                          /     
 |          /                                                          /      
 |         /                                                          /       
 |        /                                                          /        
 |       /                                                          /         
 |      /                                                          /          
 |     /                                                          /           
 |    /                                                          /            
 |   /                                                          /             
 |  /                                                          /              
 | /                                                          /               
 |/                                                          /                
 *----------------------------------------------------------*                 

Positions:
   0 C     11.501988   14.553983    8.953129
   1 C     10.078868   10.463758    8.887542
   2 C      8.877397    9.671750    9.069563
   3 C     10.236652   14.881472    8.869772
   4 C     12.684089    8.905260    9.347771
   5 C     11.387900   10.489361    8.998324
   6 C     13.796092   13.079954    9.198856
   7 C      9.938903    8.925973    9.433256
   8 C     11.369824    8.947524    9.505595
   9 C     11.848838   13.245086    9.076220
  10 C     15.083287   12.903454    9.302633
  11 C      9.369443   15.842275    8.829550
  12 C     16.019260   11.980294    9.394183

Unit cell:
           periodic     x           y           z      points  spacing
  1. axis:    no    24.000000    0.000000    0.000000   120     0.2000
  2. axis:    no     0.000000   24.000000    0.000000   120     0.2000
  3. axis:    no     0.000000    0.000000   18.000000    88     0.2045

  Lengths:  24.000000  24.000000  18.000000
  Angles:   90.000000  90.000000  90.000000

Effective grid spacing dv^(1/3) = 0.2015

                     log10-error:    total        iterations:
           time      wfs    density  energy       fermi  poisson
iter:   1  20:30:49          +inf   -81.478751    3      5      
iter:   2  20:30:50         -2.00   -81.462133    2      2      
iter:   3  20:30:51         -2.15   -81.450091    2      2      
iter:   4  20:30:52         -2.39   -81.447384    3      2      
iter:   5  20:30:53         -2.57   -81.446754    2      2      
iter:   6  20:30:53         -2.71   -81.446493    2      2      
iter:   7  20:30:54         -2.86   -81.446688    2      2      
iter:   8  20:30:55         -3.15   -81.446468    2      1      
iter:   9  20:30:56         -3.21   -81.445832    2      1      
iter:  10  20:30:57         -3.46   -81.446609    2      1      
iter:  11  20:30:58         -3.54   -81.446029    2      1      
iter:  12  20:30:58         -3.69   -81.446500    2      1      
iter:  13  20:30:59         -3.89   -81.446936    2      1      
iter:  14  20:31:00         -3.90   -81.446758    2      1      
iter:  15  20:31:01         -4.20   -81.446993    2      1      

Converged after 15 iterations.

Dipole moment: (0.448987, -0.372437, 0.101132) |e|*Ang

Energy contributions relative to reference atoms: (reference = -13359.165501)

Kinetic:        +48.179963
Potential:      -53.696616
External:        +0.000000
XC:             -77.339528
Entropy (-ST):   -0.046313
Local:           +1.432345
--------------------------
Free energy:    -81.470149
Extrapolated:   -81.446993

Fermi level: -6.09060

 Band  Eigenvalues  Occupancy
    0    -25.10108    2.00000
    1    -21.63681    2.00000
    2    -21.38134    2.00000
    3    -21.36251    2.00000
    4    -18.78022    2.00000
    5    -18.53143    2.00000
    6    -17.94190    2.00000
    7    -17.05179    2.00000
    8    -15.28839    2.00000
    9    -12.70125    2.00000
   10    -12.08225    2.00000
   11    -11.57049    2.00000
   12    -11.46482    2.00000
   13    -10.22697    2.00000
   14     -9.86925    2.00000
   15     -9.84239    2.00000
   16     -9.55415    2.00000
   17     -9.40620    2.00000
   18     -8.40336    2.00000
   19     -8.29183    2.00000
   20     -8.12708    2.00000
   21     -7.66856    2.00000
   22     -7.02151    1.99982
[...]
   /            |                                                          |  
  /             |                                                          |  
 *              |                                                          |  
 |              |                                                          |  
 |              |                C  C C C                                  |  
 |              |                          C C  C                          |  
 |              |                  C  C                                    |  
 |              |           C  C  C                                        |  
 |              |                                                          |  
 |              .----------------------------------------------------------.  
 |             /                                                          /   
 |            /                                                          /    
 |           /                                                          /     
 |          /                                                          /      
 |         /                                                          /       
 |        /                                                          /        
 |       /                                                          /         
 |      /                                                          /          
 |     /                                                          /           
 |    /                                                          /            
 |   /                                                          /             
 |  /                                                          /              
 | /                                                          /               
 |/                                                          /                
 *----------------------------------------------------------*                 

Positions:
   0 C     11.429495   14.260600    8.996726
   1 C      9.770567   10.321866    9.010722
   2 C      8.777502    9.330059    9.030699
   3 C     10.276664   14.877467    8.904488
   4 C     12.349403    9.932533    9.269128
   5 C     11.096776   10.548739    9.098329
   6 C     13.726853   13.087701    9.207313
   7 C     10.022071    8.730659    9.275252
   8 C     11.347910    8.953987    9.364051
   9 C     12.570723   13.660325    9.084812
  10 C     14.910616   12.546015    9.338905
  11 C      9.140316   15.526841    8.761479
  12 C     16.141058   12.090150    9.449915

Unit cell:
           periodic     x           y           z      points  spacing
  1. axis:    no    24.000000    0.000000    0.000000   120     0.2000
  2. axis:    no     0.000000   24.000000    0.000000   120     0.2000
  3. axis:    no     0.000000    0.000000   18.000000    88     0.2045

  Lengths:  24.000000  24.000000  18.000000
  Angles:   90.000000  90.000000  90.000000

Effective grid spacing dv^(1/3) = 0.2015

                     log10-error:    total        iterations:
           time      wfs    density  energy       fermi  poisson
iter:   1  20:46:56          +inf   -88.470974    2      5      
iter:   2  20:46:56         -2.52   -88.469657    2      1      
iter:   3  20:46:57         -2.57   -88.468934    2      2      
iter:   4  20:46:58         -2.78   -88.468335    2      2      
iter:   5  20:46:59         -2.91   -88.467265    2      1      
iter:   6  20:47:00         -3.18   -88.469075    2      2      
iter:   7  20:47:01         -2.77   -88.469526    2      1      
iter:   8  20:47:02         -2.79   -88.467954    2      1      
iter:   9  20:47:02         -3.76   -88.468008    2      1      
iter:  10  20:47:03         -3.67   -88.468301    1      1      
iter:  11  20:47:04         -3.93   -88.468217    1      1      
iter:  12  20:47:05         -3.89   -88.468222    1      1      
iter:  13  20:47:06         -4.05   -88.468179    1      1      

Converged after 13 iterations.

Dipole moment: (0.005860, -0.185458, 0.028750) |e|*Ang

Energy contributions relative to reference atoms: (reference = -13359.165501)

Kinetic:        +52.107612
Potential:      -56.936227
External:        +0.000000
XC:             -85.145026
Entropy (-ST):   -0.020844
Local:           +1.515884
--------------------------
Free energy:    -88.478601
Extrapolated:   -88.468179

Fermi level: -5.98322

 Band  Eigenvalues  Occupancy
    0    -25.89665    2.00000
    1    -22.41020    2.00000
    2    -22.13908    2.00000
    3    -21.05435    2.00000
    4    -19.78133    2.00000
    5    -18.46915    2.00000
    6    -18.42485    2.00000
    7    -17.82463    2.00000
    8    -16.82546    2.00000
    9    -15.60627    2.00000
   10    -13.14020    2.00000
   11    -12.01394    2.00000
   12    -11.80885    2.00000
   13    -11.70224    2.00000
   14    -10.81652    2.00000
   15    -10.79811    2.00000
   16     -9.34744    2.00000
   17     -9.32842    2.00000
   18     -8.58883    2.00000
   19     -8.44294    2.00000
   20     -7.47917    2.00000
   21     -7.46663    2.00000
   22     -7.33341    2.00000
   23     -7.31510    2.00000
   24     -6.96142    1.99989
   25     -6.46313    1.98366
   26     -5.41753    0.00696
   27     -5.41547    0.00682
   28     -5.32168    0.00268
   29     -3.13411    0.00000
   30     -3.03063    0.00000
   31     -2.42762    0.00000
   32     -2.42419    0.00000
   33     -1.32952    0.00000
   34     -0.93677    0.00000
   35      0.68807    0.00000
   36      0.71195    0.00000
   37      1.08820    0.00000
   38      2.68710    0.00000
   39      3.44007    0.00000
   40      3.51207    0.00000
   41      3.63260    0.00000
   42      4.49143    0.00000
   43      4.93004    0.00000
   44      5.17952    0.00000
   45      5.88795    0.00000
   46      6.21954    0.00000
   47      6.79342    0.00000
   48      7.53895    0.00000
   49      7.74245    0.00000
   50      8.22329    0.00000
   51      8.26863    0.00000
   52      8.47783    0.00000
   53      8.50046    0.00000
   54      8.75848    0.00000
   55      9.09182    0.00000
   56      9.17546    0.00000
   57      9.27129    0.00000
   58      9.70536    0.00000
   59      9.92234    0.00000
   60     10.03946    0.00000
   61     10.06670    0.00000
   62     10.40869    0.00000
   63     10.63488    0.00000
   64     11.02796    0.00000
   65     11.22943    0.00000
   66     11.52061    0.00000
   67     11.77839    0.00000
   68     12.25072    0.00000
   69     12.34457    0.00000
   70     12.67355    0.00000
   71     12.71490    0.00000
   72     12.81379    0.00000
   73     12.99046    0.00000
   74     13.28654    0.00000
   75     13.50114    0.00000


Forces in eV/Ang:
  0 C    -0.03012    0.03739   -0.00867
  1 C    -0.00359   -0.02952   -0.01541
  2 C     0.02787    0.02768    0.04138
  3 C     0.10687   -0.07537   -0.01664
  4 C    -0.01910    0.00753    0.05184
  5 C    -0.03282    0.02500   -0.02732
  6 C     0.04901    0.02969    0.02891
  7 C    -0.00691   -0.00352   -0.03302
  8 C     0.05439   -0.05295    0.00667
  9 C     0.06047   -0.10505    0.04012
 10 C    -0.19655    0.07616   -0.03255
 11 C    -0.11475    0.05030   -0.00391
 12 C     0.18189   -0.08836    0.03234

System changes: positions 

Initializing position-dependent things.

Density initialized from wave functions
                .----------------------------------------------------------.  
               /|                                                          |  
              / |                                                          |  
             /  |                                                          |  
            /   |                                                          |  
           /    |                                                          |  
          /     |                                                          |  
         /      |                                                          |  
        /       |                                                          |  
       /        |                                                          |  
      /         |                                                          |  
     /          |                                                          |  
    /           |                                                          |  
   /            |                                                          |  
  /             |                                                          |  
 *              |                                                          |  
 |              |                                                          |  
 |              |                C  C C C                                  |  
 |              |                          C  C C                          |  
 |              |                  C  C                                    |  
 |              |           C  C  C                                        |  
 |              |                                                          |  
 |              .----------------------------------------------------------.  
 |             /                                                          /   
 |            /                                                          /    
 |           /                                                          /     
 |          /                                                          /      
 |         /                                                          /       
 |        /                                                          /        
 |       /                                                          /         
 |      /                                                          /          
 |     /                                                          /           
 |    /                                                          /            
 |   /                                                          /             
 |  /                                                          /              
 | /                                                          /               
 |/                                                          /                
 *----------------------------------------------------------*                 

Positions:
   0 C     11.431356   14.261093    8.996260
   1 C      9.766163   10.319862    9.011909
   2 C      8.776594    9.325727    9.029177
   3 C     10.276286   14.874177    8.903398
   4 C     12.346429    9.939176    9.267957
   5 C     11.091385   10.552995    9.100439
   6 C     13.732182   13.096037    9.207891
   7 C     10.022757    8.729225    9.274876
   8 C     11.348236    8.956836    9.361012
   9 C     12.574627   13.664359    9.084828
  10 C     14.913931   12.550798    9.339207
  11 C      9.133314   15.515311    8.761642
  12 C     16.141095   12.078859    9.452305

Unit cell:
           periodic     x           y           z      points  spacing
  1. axis:    no    24.000000    0.000000    0.000000   120     0.2000
  2. axis:    no     0.000000   24.000000    0.000000   120     0.2000
  3. axis:    no     0.000000    0.000000   18.000000    88     0.2045

  Lengths:  24.000000  24.000000  18.000000
  Angles:   90.000000  90.000000  90.000000

Effective grid spacing dv^(1/3) = 0.2015

                     log10-error:    total        iterations:
           time      wfs    density  energy       fermi  poisson
iter:   1  20:47:08          +inf   -88.469792    2      4      
iter:   2  20:47:08         -2.76   -88.469651    2      1      
iter:   3  20:47:09         -2.86   -88.470045    2      1      
iter:   4  20:47:10         -3.06   -88.472362    2      1      
iter:   5  20:47:11         -3.34   -88.470360    2      1      
iter:   6  20:47:12         -2.99   -88.469748    2      1      
iter:   7  20:47:13         -3.23   -88.470682    2      1      
iter:   8  20:47:13         -3.01   -88.469287    2      1      
iter:   9  20:47:14         -3.95   -88.469613    1      1      
iter:  10  20:47:15         -3.95   -88.469854    2      1      
iter:  11  20:47:16         -4.06   -88.469409    2      1      

Converged after 11 iterations.

Dipole moment: (0.007765, -0.178928, 0.028381) |e|*Ang

Energy contributions relative to reference atoms: (reference = -13359.165501)

Kinetic:        +51.731451
Potential:      -56.646403
External:        +0.000000
XC:             -85.056125
Entropy (-ST):   -0.020963
Local:           +1.512150
--------------------------
Free energy:    -88.479891
Extrapolated:   -88.469409

Fermi level: -5.97933

 Band  Eigenvalues  Occupancy
    0    -25.88783    2.00000
    1    -22.40288    2.00000
    2    -22.13308    2.00000
    3    -21.04612    2.00000
    4    -19.76911    2.00000
    5    -18.45644    2.00000
    6    -18.42377    2.00000
    7    -17.81815    2.00000
    8    -16.81802    2.00000
    9    -15.60149    2.00000
   10    -13.13905    2.00000
   11    -12.00828    2.00000
   12    -11.80442    2.00000
   13    -11.69986    2.00000
   14    -10.81059    2.00000
   15    -10.79262    2.00000
   16     -9.33944    2.00000
   17     -9.32049    2.00000
   18     -8.58459    2.00000
   19     -8.43807    2.00000
   20     -7.46957    2.00000
   21     -7.45801    2.00000
   22     -7.34103    2.00000
   23     -7.32368    2.00000
   24     -6.96069    1.99989
   25     -6.45854    1.98355
   26     -5.41344    0.00695
   27     -5.41227    0.00687
   28     -5.32059    0.00275
   29     -3.13041    0.00000
   30     -3.03485    0.00000
   31     -2.43362    0.00000
   32     -2.43024    0.00000
   33     -1.33491    0.00000
   34     -0.93418    0.00000
   35      0.68343    0.00000
   36      0.70025    0.00000
   37      1.08927    0.00000
   38      2.71135    0.00000
   39      3.44747    0.00000
   40      3.51192    0.00000
   41      3.61477    0.00000
   42      4.48937    0.00000
   43      4.90729    0.00000
   44      5.18047    0.00000
   45      5.89114    0.00000
   46      6.21907    0.00000
   47      6.78080    0.00000
   48      7.53552    0.00000
   49      7.74974    0.00000
   50      8.22309    0.00000
   51      8.26953    0.00000
   52      8.47699    0.00000
   53      8.50240    0.00000
   54      8.75670    0.00000
   55      9.09614    0.00000
   56      9.17092    0.00000
   57      9.26553    0.00000
   58      9.70881    0.00000
   59      9.91420    0.00000
   60     10.04052    0.00000
   61     10.06854    0.00000
   62     10.40941    0.00000
   63     10.63662    0.00000
   64     11.03037    0.00000
   65     11.22432    0.00000
   66     11.52208    0.00000
   67     11.79140    0.00000
   68     12.25049    0.00000
   69     12.34095    0.00000
   70     12.66522    0.00000
   71     12.70908    0.00000
   72     12.80669    0.00000
   73     13.00268    0.00000
   74     13.28200    0.00000
   75     13.50318    0.00000


Forces in eV/Ang:
  0 C    -0.02910    0.04125   -0.00724
  1 C     0.03057   -0.03988   -0.01263
  2 C     0.05949    0.00228    0.03712
  3 C     0.04411   -0.02822   -0.02806
  4 C    -0.00741    0.03506    0.04791
  5 C     0.01079    0.00539   -0.02201
  6 C     0.06175   -0.00035    0.02285
  7 C     0.00936    0.02593   -0.02992
  8 C     0.05258   -0.03100   -0.00047
  9 C     0.01977   -0.05530    0.03857
 10 C    -0.01107    0.02389   -0.01759
 11 C    -0.03995   -0.01205    0.00775
 12 C     0.02646   -0.04728    0.02956

Timing:                                       incl.     excl.
--------------------------------------------------------------------
Basic WFS set positions:                      0.051     0.044   0.0% |
 Redistribute:                                0.007     0.007   0.0% |
Basis functions set positions:                1.809     1.809   0.2% |
Forces:                                      65.565    57.170   5.1% |-|
 LCAO forces:                                 8.396     0.203   0.0% |
  Atomic Hamiltonian force:                   0.001     0.001   0.0% |
  Initial:                                    0.085     0.001   0.0% |
   Get density matrix:                        0.084     0.084   0.0% |
  Paw correction:                             0.004     0.004   0.0% |
  Potential:                                  0.096     0.096   0.0% |
  TCI derivative:                             8.005     8.005   0.7% |
  Wait for sum:                               0.001     0.001   0.0% |
LCAO WFS Initialize:                         86.795     0.031   0.0% |
 Density initialized from wave functions:    15.700    15.640   1.4% ||
  Calculate density matrix:                   0.058     0.058   0.0% |
  Construct density:                          0.001     0.001   0.0% |
  Symmetrize density:                         0.002     0.002   0.0% |
 Hamiltonian:                                71.064     0.016   0.0% |
  Atomic:                                     0.031     0.031   0.0% |
   XC Correction:                             0.001     0.001   0.0% |
  Calculate atomic Hamiltonians:              0.034     0.034   0.0% |
  Communicate:                                6.030     6.030   0.5% |
  Hartree integrate/restrict:                 1.208     1.208   0.1% |
  Initialize Hamiltonian:                     0.004     0.004   0.0% |
  Poisson:                                   39.197    39.197   3.5% ||
  XC 3D grid:                                24.231    24.231   2.2% ||
  vbar:                                       0.313     0.313   0.0% |
Redistribute:                                 0.018     0.018   0.0% |
SCF-cycle:                                  959.395     0.645   0.1% |
 Density:                                   211.685     0.049   0.0% |
  Atomic density matrices:                  189.891   189.891  17.0% |------|
  Mix:                                       20.366    20.366   1.8% ||
  Multipole moments:                          0.321     0.321   0.0% |
  Normalize:                                  0.205     0.205   0.0% |
  Pseudo density:                             0.853     0.375   0.0% |
   Calculate density matrix:                  0.444     0.444   0.0% |
   Construct density:                         0.012     0.012   0.0% |
   Symmetrize density:                        0.022     0.022   0.0% |
 Hamiltonian:                               554.963     0.210   0.0% |
  Atomic:                                     0.414     0.407   0.0% |
   XC Correction:                             0.007     0.007   0.0% |
  Calculate atomic Hamiltonians:              0.437     0.437   0.0% |
  Communicate:                               78.767    78.767   7.0% |--|
  Hartree integrate/restrict:                15.789    15.789   1.4% ||
  Poisson:                                  138.430   138.430  12.4% |----|
  XC 3D grid:                               316.826   316.826  28.3% |----------|
  vbar:                                       4.088     4.088   0.4% |
 LCAO eigensolver:                          192.103     0.153   0.0% |
  Calculate projections:                      0.013     0.013   0.0% |
  DenseAtomicCorrection:                      0.050     0.050   0.0% |
  Distribute overlap matrix:                181.493   181.493  16.2% |-----|
  Orbital Layouts:                           10.259    10.259   0.9% |
  Potential matrix:                           0.135     0.135   0.0% |
Set symmetry:                                 0.033     0.033   0.0% |
TCI: Calculate S, T, P:                       0.545     0.545   0.0% |
TCI: Evaluate splines:                        0.114     0.114   0.0% |
Other:                                        5.345     5.345   0.5% |
--------------------------------------------------------------------
Total:                                               1119.672 100.0%

Memory usage: 179.34 MiB
Date: Thu Mar 22 20:47:17 2018
