
  ___ ___ ___ _ _ _  
 |   |   |_  | | | | 
 | | | | | . | | | | 
 |__ |  _|___|_____|  1.3.1b1
 |___|_|             

User:   mkb@s91n53.grendel.cscaa.dk
Date:   Thu Mar 22 21:59:07 2018
Arch:   x86_64
Pid:    399355
Python: 2.7.13
gpaw:   /home/mkb/gpaw/gpaw
_gpaw:  /home/mkb/gpaw/build/bin.linux-x86_64-2.7/gpaw-python
ase:    /home/mkb/ase/ase (version 3.15.1b1)
numpy:  /comm/swstack/core/python/2.7.13/lib/python2.7/site-packages/numpy (version 1.13.3)
scipy:  /comm/swstack/core/python/2.7.13/lib/python2.7/site-packages/scipy (version 0.19.1)
units:  Angstrom and eV
cores:  36
Extra parameters: {'blacs': True}

Input parameters:
  basis: dzp
  gpts: [120 120  88]
  kpts: [1 1 1]
  maxiter: 99
  mixer: {backend: pulay,
          beta: 0.05,
          method: separate,
          nmaxold: 5,
          weight: 75}
  mode: lcao
  nbands: -50
  occupations: {name: fermi-dirac,
                width: 0.1}
  poissonsolver: {eps: 1e-07,
                  name: fd,
                  nn: 3,
                  relax: GS}
  xc: PBE

System changes: positions, numbers, cell, pbc, initial_charges, initial_magmoms 

Initialize ...

C-setup:
  name: Carbon
  id: 4aa54d4b901d75f77cc0ea3eec22967b
  Z: 6
  valence: 4
  core: 2
  charge: 0.0
  file: /home/esb/DFT/gpaw-setups-0.8.7929/C.PBE.gz
  cutoffs: 0.64(comp), 1.14(filt), 1.14(core), lmax=2
  valence states:
                energy  radius
    2s(2.00)   -13.751   0.635
    2p(2.00)    -5.284   0.635
    *s          13.461   0.635
    *p          21.927   0.635
    *d           0.000   0.635

  LCAO basis set for C:
    Name: dzp
    File: /home/esb/DFT/gpaw-setups-0.8.7929/C.dzp.basis.gz
    Number of radial functions: 5
    Number of spherical harmonics: 13
      l=0, rc=5.5469 Bohr: 2s-sz confined orbital
      l=1, rc=6.6719 Bohr: 2p-sz confined orbital
      l=0, rc=3.0312 Bohr: 2s-dz split-valence wave
      l=1, rc=3.7500 Bohr: 2p-dz split-valence wave
      l=2, rc=6.6719 Bohr: d-type Gaussian polarization

Reference energy: -13359.165501

Spin-paired calculation

Occupation numbers:
  Fermi-Dirac: width=0.1000 eV

Convergence criteria:
  Maximum total energy change: 0.0005 eV / electron
  Maximum integral of absolute density change: 0.0001 electrons
  Maximum integral of absolute eigenstate change: 4e-08 eV^2
  Maximum number of iterations: 99

Symmetries present (total): 1

  ( 1  0  0)
  ( 0  1  0)
  ( 0  0  1)

1 k-point (Gamma)
1 k-point in the irreducible part of the Brillouin zone
       k-points in crystal coordinates                weights
   0:     0.00000000    0.00000000    0.00000000          1/1

Wave functions: LCAO
  Diagonalizer: Serial LAPACK
  Atomic Correction: dense with blas
  Datatype: float
  Eigensolver: None 

LCAO using direct dense diagonalizer 

Densities:
  Coarse grid: 120*120*88 grid
  Fine grid: 240*240*176 grid
  Total Charge: 0.000000 

Density mixing:
  Method: separate
  Backend: pulay
  Linear mixing parameter: 0.05
  Mixing with 5 old densities
  Damping of long wave oscillations: 75 

Hamiltonian:
  XC and Coulomb potentials evaluated on a 240*240*176 grid
  Using the PBE Exchange-Correlation functional
  Interpolation: tri-quintic (5. degree polynomial)
  Poisson solver: Gauss-Seidel solver with 5 multi-grid levels
    Coarsest grid: 15 x 15 x 11 points
    Stencil: 6*3+1=19 point O(h^6) finite-difference Laplacian
    Max iterations: 1000
    Tolerance: 1.000000e-07 

Memory estimate:
  Process memory now: 182.87 MiB
  Calculator: 19.91 MiB
    Density: 9.40 MiB
      Arrays: 6.69 MiB
      Localized functions: 0.21 MiB
      Mixer: 2.50 MiB
    Hamiltonian: 9.40 MiB
      Arrays: 4.38 MiB
      XC: 0.00 MiB
      Poisson: 5.01 MiB
      vbar: 0.02 MiB
    Wavefunctions: 1.11 MiB
      C [qnM]: 0.10 MiB
      S, T [2 x qmm]: 0.44 MiB
      P [aqMi]: 0.00 MiB
      TCI: 0.00 MiB
      BasisFunctions: 0.57 MiB
      Eigensolver: 0.00 MiB

Total number of cores used: 36
Domain decomposition: 3 x 4 x 3

Number of atoms: 13
Number of atomic orbitals: 169
Number of bands in calculation: 76
Bands to converge: occupied states only
Number of valence electrons: 52

... initialized

Initializing position-dependent things.

Density initialized from atomic densities
                .----------------------------------------------------------.  
               /|                                                          |  
              / |                                                          |  
             /  |                                                          |  
            /   |                                                          |  
           /    |                                                          |  
          /     |                                                          |  
         /      |                                                          |  
        /       |                                                          |  
       /        |                                                          |  
      /         |                                                          |  
     /          |                                                          |  
    /           |                                                          |  
   /            |                                                          |  
  /             |                                                          |  
 *              |                                                          |  
 |              |                             C  CC                        |  
 |              |                  CC  C  C                                |  
 |              |                C     C                                   |  
 |              |                   C C                                    |  
 |              |            C  C                                          |  
 |              |                                                          |  
 |              .----------------------------------------------------------.  
 |             /                                                          /   
 |            /                                                          /    
 |           /                                                          /     
 |          /                                                          /      
 |         /                                                          /       
 |        /                                                          /        
 |       /                                                          /         
 |      /                                                          /          
 |     /                                                          /           
 |    /                                                          /            
 |   /                                                          /             
 |  /                                                          /              
 | /                                                          /               
 |/                                                          /                
 *----------------------------------------------------------*                 

Positions:
   0 C     11.966146   13.301444    9.738784
   1 C     10.114464   11.428285    9.499659
   2 C     10.103825   10.101121    9.120066
   3 C     10.843103   14.022470    9.501137
   4 C     12.638508    9.283503    9.755113
   5 C     12.657522   10.589057    9.774426
   6 C     14.625738   13.756614   10.105310
   7 C      9.020058    9.257786    8.950292
   8 C     11.520980    9.945421    9.340355
   9 C     13.344295   13.329643    9.940581
  10 C     15.968904   13.702688   10.282930
  11 C     10.720578   12.691261    9.558816
  12 C     16.833709   12.705290   10.496510

Unit cell:
           periodic     x           y           z      points  spacing
  1. axis:    no    24.000000    0.000000    0.000000   120     0.2000
  2. axis:    no     0.000000   24.000000    0.000000   120     0.2000
  3. axis:    no     0.000000    0.000000   18.000000    88     0.2045

  Lengths:  24.000000  24.000000  18.000000
  Angles:   90.000000  90.000000  90.000000

Effective grid spacing dv^(1/3) = 0.2015

                     log10-error:    total        iterations:
           time      wfs    density  energy       fermi  poisson
iter:   1  21:59:08          +inf   -89.268486    1      6      
iter:   2  21:59:09         -0.81   -88.072708    3      3      
iter:   3  21:59:11         -0.89   -87.446552    3      3      
iter:   4  21:59:12         -0.95   -86.500469    31     3      
iter:   5  21:59:13         -1.18   -86.325373    31     3      
iter:   6  21:59:14         -1.38   -86.288853    32     3      
iter:   7  21:59:15         -1.64   -86.253651    3      2      
iter:   8  21:59:16         -1.72   -86.236361    3      3      
iter:   9  21:59:16         -1.75   -86.215473    2      2      
iter:  10  21:59:17         -1.96   -86.203227    3      2      
iter:  11  21:59:18         -2.08   -86.195966    3      2      
iter:  12  21:59:19         -2.26   -86.197313    3      2      
iter:  13  21:59:20         -2.38   -86.192218    3      2      
iter:  14  21:59:21         -2.67   -86.190234    3      2      
iter:  15  21:59:22         -2.92   -86.187751    2      1      
iter:  16  21:59:23         -3.04   -86.183162    3      1      
iter:  17  21:59:24         -3.20   -86.187118    2      1      
iter:  18  21:59:24         -3.27   -86.192147    2      1      
iter:  19  21:59:25         -3.58   -86.188055    2      1      
iter:  20  21:59:26         -3.68   -86.189224    2      1      
iter:  21  21:59:27         -3.76   -86.190403    2      1      
iter:  22  21:59:28         -3.82   -86.189191    2      1      
iter:  23  21:59:29         -3.91   -86.189220    2      1      
iter:  24  21:59:29         -3.99   -86.189655    2      1      
iter:  25  21:59:30         -4.15   -86.189185    2      1      

Converged after 25 iterations.

Dipole moment: (-0.487792, 0.059951, -0.142259) |e|*Ang

Energy contributions relative to reference atoms: (reference = -13359.165501)

Kinetic:        +64.285456
Potential:      -64.893275
External:        +0.000000
XC:             -86.945824
Entropy (-ST):   -0.273150
Local:           +1.501033
--------------------------
Free energy:    -86.325760
Extrapolated:   -86.189185

Fermi level: -5.85204

 Band  Eigenvalues  Occupancy
    0    -25.48815    2.00000
    1    -25.22786    2.00000
    2    -22.59402    2.00000
    3    -20.86685    2.00000
    4    -19.30961    2.00000
    5    -18.83147    2.00000
    6    -17.26728    2.00000
    7    -16.92104    2.00000
    8    -14.87030    2.00000
    9    -14.75548    2.00000
   10    -13.19513    2.00000
   11    -12.24760    2.00000
   12    -11.90991    2.00000
   13    -11.66587    2.00000
   14    -11.32705    2.00000
   15    -10.91355    2.00000
   16     -9.48725    2.00000
   17     -9.16348    2.00000
   18     -9.07227    2.00000
   19     -8.36558    2.00000
   20     -7.65094    2.00000
   21     -7.32959    2.00000
   22     -7.08924    1.99999
   23     -6.86553    1.99992
   24     -6.55583    1.99825
   25     -5.93427    1.38944
   26     -5.75170    0.53653
   27     -5.52872    0.07587
   28     -4.65413    0.00001
   29     -3.98064    0.00000
   30     -3.60800    0.00000
   31     -2.68213    0.00000
   32     -1.52428    0.00000
   33     -1.48268    0.00000
   34     -1.30153    0.00000
   35     -0.79352    0.00000
   36      0.63377    0.00000
   37      2.21277    0.00000
   38      2.38736    0.00000
   39      3.14322    0.00000
   40      3.67262    0.00000
   41      4.39131    0.00000
   42      5.36728    0.00000
   43      6.19282    0.00000
   44      6.27295    0.00000
   45      6.72841    0.00000
   46      7.37327    0.00000
   47      7.42725    0.00000
   48      8.09771    0.00000
   49      8.23071    0.00000
   50      8.54352    0.00000
   51      8.65607    0.00000
   52      8.70014    0.00000
   53      8.82919    0.00000
   54      9.07477    0.00000
   55      9.31154    0.00000
   56      9.50443    0.00000
   57      9.56396    0.00000
   58      9.90065    0.00000
   59     10.36835    0.00000
   60     10.41337    0.00000
   61     10.62554    0.00000
   62     10.78619    0.00000
   63     10.91137    0.00000
   64     10.97591    0.00000
   65     11.31603    0.00000
   66     11.64921    0.00000
   67     11.77890    0.00000
   68     12.16123    0.00000
   69     12.44347    0.00000
   70     12.64869    0.00000
   71     12.91073    0.00000
   72     12.96544    0.00000
   73     13.15895    0.00000
   74     13.52577    0.00000
   75     13.86256    0.00000

Timing:                              incl.     excl.
-----------------------------------------------------------
Basic WFS set positions:             0.001     0.001   0.0% |
Basis functions set positions:       0.021     0.021   0.1% |
LCAO WFS Initialize:                 0.974     0.024   0.1% |
 Hamiltonian:                        0.950     0.000   0.0% |
  Atomic:                            0.000     0.000   0.0% |
   XC Correction:                    0.000     0.000   0.0% |
  Calculate atomic Hamiltonians:     0.000     0.000   0.0% |
  Communicate:                       0.071     0.071   0.3% |
  Hartree integrate/restrict:        0.014     0.014   0.1% |
  Initialize Hamiltonian:            0.003     0.003   0.0% |
  Poisson:                           0.572     0.572   2.4% ||
  XC 3D grid:                        0.285     0.285   1.2% |
  vbar:                              0.004     0.004   0.0% |
SCF-cycle:                          21.947     0.019   0.1% |
 Density:                            4.653     0.001   0.0% |
  Atomic density matrices:           4.174     4.174  17.6% |------|
  Mix:                               0.448     0.448   1.9% ||
  Multipole moments:                 0.007     0.007   0.0% |
  Normalize:                         0.005     0.005   0.0% |
  Pseudo density:                    0.018     0.008   0.0% |
   Calculate density matrix:         0.009     0.009   0.0% |
   Construct density:                0.000     0.000   0.0% |
   Symmetrize density:               0.001     0.001   0.0% |
 Hamiltonian:                       13.179     0.005   0.0% |
  Atomic:                            0.009     0.009   0.0% |
   XC Correction:                    0.000     0.000   0.0% |
  Calculate atomic Hamiltonians:     0.010     0.010   0.0% |
  Communicate:                       1.697     1.697   7.2% |--|
  Hartree integrate/restrict:        0.341     0.341   1.4% ||
  Poisson:                           4.193     4.193  17.7% |------|
  XC 3D grid:                        6.836     6.836  28.9% |-----------|
  vbar:                              0.090     0.090   0.4% |
 LCAO eigensolver:                   4.096     0.003   0.0% |
  Calculate projections:             0.000     0.000   0.0% |
  DenseAtomicCorrection:             0.001     0.001   0.0% |
  Distribute overlap matrix:         3.873     3.873  16.4% |------|
  Orbital Layouts:                   0.216     0.216   0.9% |
  Potential matrix:                  0.003     0.003   0.0% |
Set symmetry:                        0.027     0.027   0.1% |
TCI: Calculate S, T, P:              0.006     0.006   0.0% |
TCI: Evaluate splines:               0.113     0.113   0.5% |
Other:                               0.563     0.563   2.4% ||
-----------------------------------------------------------
Total:                                        23.652 100.0%

Memory usage: 204.91 MiB
Date: Thu Mar 22 21:59:30 2018
