
  ___ ___ ___ _ _ _  
 |   |   |_  | | | | 
 | | | | | . | | | | 
 |__ |  _|___|_____|  1.3.1b1
 |___|_|             

User:   mkb@s91n53.grendel.cscaa.dk
Date:   Thu Mar 22 22:23:10 2018
Arch:   x86_64
Pid:    399355
Python: 2.7.13
gpaw:   /home/mkb/gpaw/gpaw
_gpaw:  /home/mkb/gpaw/build/bin.linux-x86_64-2.7/gpaw-python
ase:    /home/mkb/ase/ase (version 3.15.1b1)
numpy:  /comm/swstack/core/python/2.7.13/lib/python2.7/site-packages/numpy (version 1.13.3)
scipy:  /comm/swstack/core/python/2.7.13/lib/python2.7/site-packages/scipy (version 0.19.1)
units:  Angstrom and eV
cores:  36
Extra parameters: {'blacs': True}

Input parameters:
  basis: dzp
  gpts: [120 120  88]
  kpts: [1 1 1]
  maxiter: 99
  mixer: {backend: pulay,
          beta: 0.05,
          method: separate,
          nmaxold: 5,
          weight: 75}
  mode: lcao
  nbands: -50
  occupations: {name: fermi-dirac,
                width: 0.1}
  poissonsolver: {eps: 1e-07,
                  name: fd,
                  nn: 3,
                  relax: GS}
  xc: PBE

System changes: positions, numbers, cell, pbc, initial_charges, initial_magmoms 

Initialize ...

C-setup:
  name: Carbon
  id: 4aa54d4b901d75f77cc0ea3eec22967b
  Z: 6
  valence: 4
  core: 2
  charge: 0.0
  file: /home/esb/DFT/gpaw-setups-0.8.7929/C.PBE.gz
  cutoffs: 0.64(comp), 1.14(filt), 1.14(core), lmax=2
  valence states:
                energy  radius
    2s(2.00)   -13.751   0.635
    2p(2.00)    -5.284   0.635
    *s          13.461   0.635
    *p          21.927   0.635
    *d           0.000   0.635

  LCAO basis set for C:
    Name: dzp
    File: /home/esb/DFT/gpaw-setups-0.8.7929/C.dzp.basis.gz
    Number of radial functions: 5
    Number of spherical harmonics: 13
      l=0, rc=5.5469 Bohr: 2s-sz confined orbital
      l=1, rc=6.6719 Bohr: 2p-sz confined orbital
      l=0, rc=3.0312 Bohr: 2s-dz split-valence wave
      l=1, rc=3.7500 Bohr: 2p-dz split-valence wave
      l=2, rc=6.6719 Bohr: d-type Gaussian polarization

Reference energy: -13359.165501

Spin-paired calculation

Occupation numbers:
  Fermi-Dirac: width=0.1000 eV

Convergence criteria:
  Maximum total energy change: 0.0005 eV / electron
  Maximum integral of absolute density change: 0.0001 electrons
  Maximum integral of absolute eigenstate change: 4e-08 eV^2
  Maximum number of iterations: 99

Symmetries present (total): 1

  ( 1  0  0)
  ( 0  1  0)
  ( 0  0  1)

1 k-point (Gamma)
1 k-point in the irreducible part of the Brillouin zone
       k-points in crystal coordinates                weights
   0:     0.00000000    0.00000000    0.00000000          1/1

Wave functions: LCAO
  Diagonalizer: Serial LAPACK
  Atomic Correction: dense with blas
  Datatype: float
  Eigensolver: None 

LCAO using direct dense diagonalizer 

Densities:
  Coarse grid: 120*120*88 grid
  Fine grid: 240*240*176 grid
  Total Charge: 0.000000 

Density mixing:
  Method: separate
  Backend: pulay
  Linear mixing parameter: 0.05
  Mixing with 5 old densities
  Damping of long wave oscillations: 75 

Hamiltonian:
  XC and Coulomb potentials evaluated on a 240*240*176 grid
  Using the PBE Exchange-Correlation functional
  Interpolation: tri-quintic (5. degree polynomial)
  Poisson solver: Gauss-Seidel solver with 5 multi-grid levels
    Coarsest grid: 15 x 15 x 11 points
    Stencil: 6*3+1=19 point O(h^6) finite-difference Laplacian
    Max iterations: 1000
    Tolerance: 1.000000e-07 

Memory estimate:
  Process memory now: 205.22 MiB
  Calculator: 19.91 MiB
    Density: 9.40 MiB
      Arrays: 6.69 MiB
      Localized functions: 0.21 MiB
      Mixer: 2.50 MiB
    Hamiltonian: 9.40 MiB
      Arrays: 4.38 MiB
      XC: 0.00 MiB
      Poisson: 5.01 MiB
      vbar: 0.02 MiB
    Wavefunctions: 1.11 MiB
      C [qnM]: 0.10 MiB
      S, T [2 x qmm]: 0.44 MiB
      P [aqMi]: 0.00 MiB
      TCI: 0.00 MiB
      BasisFunctions: 0.57 MiB
      Eigensolver: 0.00 MiB

Total number of cores used: 36
Domain decomposition: 3 x 4 x 3

Number of atoms: 13
Number of atomic orbitals: 169
Number of bands in calculation: 76
Bands to converge: occupied states only
Number of valence electrons: 52

... initialized

Initializing position-dependent things.

Density initialized from atomic densities
                .----------------------------------------------------------.  
               /|                                                          |  
              / |                                                          |  
             /  |                                                          |  
            /   |                                                          |  
           /    |                                                          |  
          /     |                                                          |  
         /      |                                                          |  
        /       |                                                          |  
       /        |                                                          |  
      /         |                                                          |  
     /          |                                                          |  
    /           |                                                          |  
   /            |                                                          |  
  /             |                                                          |  
 *              |                              C    C                      |  
 |              |                          C     C                         |  
 |              |                   C  C                                   |  
 |              |                C  C                                      |  
 |              |              C     C                                     |  
 |              |             C   CC                                       |  
 |              |                                                          |  
 |              .----------------------------------------------------------.  
 |             /                                                          /   
 |            /                                                          /    
 |           /                                                          /     
 |          /                                                          /      
 |         /                                                          /       
 |        /                                                          /        
 |       /                                                          /         
 |      /                                                          /          
 |     /                                                          /           
 |    /                                                          /            
 |   /                                                          /             
 |  /                                                          /              
 | /                                                          /               
 |/                                                          /                
 *----------------------------------------------------------*                 

Positions:
   0 C     12.154664   13.266469    9.738784
   1 C     10.174771   11.497332    9.499659
   2 C      9.664531   10.340576    9.120066
   3 C     10.775693   13.600908    9.501137
   4 C     11.665325    8.665625    9.755113
   5 C     12.095882    9.951947    9.774426
   6 C     14.909457   15.235304   10.105310
   7 C      9.647335    9.032047    8.950292
   8 C     10.825492    9.574902    9.340355
   9 C     13.405384   13.731010    9.940581
  10 C     15.878020   14.246671   10.282930
  11 C     11.172426   12.349169    9.558816
  12 C     17.242755   14.547373   10.496510

Unit cell:
           periodic     x           y           z      points  spacing
  1. axis:    no    24.000000    0.000000    0.000000   120     0.2000
  2. axis:    no     0.000000   24.000000    0.000000   120     0.2000
  3. axis:    no     0.000000    0.000000   18.000000    88     0.2045

  Lengths:  24.000000  24.000000  18.000000
  Angles:   90.000000  90.000000  90.000000

Effective grid spacing dv^(1/3) = 0.2015

                     log10-error:    total        iterations:
           time      wfs    density  energy       fermi  poisson
iter:   1  22:23:12          +inf   -82.129018    1      6      
iter:   2  22:23:13         -0.83   -81.370980    3      3      
iter:   3  22:23:14         -0.87   -80.573123    32     3      
iter:   4  22:23:15         -0.99   -80.025055    3      2      
iter:   5  22:23:16         -1.04   -79.555442    32     3      
iter:   6  22:23:17         -1.29   -79.401311    3      3      
iter:   7  22:23:18         -1.43   -79.192843    3      3      
iter:   8  22:23:19         -1.67   -79.180907    3      2      
iter:   9  22:23:20         -1.77   -79.123813    3      3      
iter:  10  22:23:21         -2.01   -79.119329    3      2      
iter:  11  22:23:22         -2.08   -79.121437    3      2      
iter:  12  22:23:23         -2.29   -79.112246    3      2      
iter:  13  22:23:24         -2.43   -79.108667    2      2      
iter:  14  22:23:25         -2.71   -79.108471    3      2      
iter:  15  22:23:26         -2.75   -79.111221    2      1      
iter:  16  22:23:27         -2.82   -79.108493    2      2      
iter:  17  22:23:28         -3.21   -79.108606    2      1      
iter:  18  22:23:29         -3.29   -79.109676    2      1      
iter:  19  22:23:29         -3.38   -79.108696    2      1      
iter:  20  22:23:30         -3.55   -79.107183    2      1      
iter:  21  22:23:31         -3.60   -79.104405    2      1      
iter:  22  22:23:32         -3.89   -79.107287    2      1      
iter:  23  22:23:33         -4.07   -79.107115    2      1      

Converged after 23 iterations.

Dipole moment: (-0.502367, 0.033657, -0.039581) |e|*Ang

Energy contributions relative to reference atoms: (reference = -13359.165501)

Kinetic:        +98.746055
Potential:      -89.347649
External:        +0.000000
XC:             -89.860890
Entropy (-ST):   -0.203611
Local:           +1.457174
--------------------------
Free energy:    -79.208921
Extrapolated:   -79.107115

Fermi level: -6.20459

 Band  Eigenvalues  Occupancy
    0    -27.24280    2.00000
    1    -26.04229    2.00000
    2    -24.26095    2.00000
    3    -21.40294    2.00000
    4    -20.06785    2.00000
    5    -19.46164    2.00000
    6    -17.62049    2.00000
    7    -15.95568    2.00000
    8    -14.89571    2.00000
    9    -13.92151    2.00000
   10    -13.49294    2.00000
   11    -13.24272    2.00000
   12    -12.09206    2.00000
   13    -10.75527    2.00000
   14    -10.65963    2.00000
   15    -10.05680    2.00000
   16     -9.42919    2.00000
   17     -9.22676    2.00000
   18     -8.48861    2.00000
   19     -8.41057    2.00000
   20     -7.72989    2.00000
   21     -7.55692    2.00000
   22     -7.27368    1.99995
   23     -7.09756    1.99974
   24     -6.47046    1.86909
   25     -6.42425    1.79988
   26     -6.04289    0.33123
   27     -5.23104    0.00012
   28     -4.73938    0.00000
   29     -4.57941    0.00000
   30     -2.88495    0.00000
   31     -2.57444    0.00000
   32     -2.10462    0.00000
   33     -1.91430    0.00000
   34     -1.62300    0.00000
   35     -1.08265    0.00000
   36     -0.64629    0.00000
   37      0.02214    0.00000
   38      1.04436    0.00000
   39      1.85125    0.00000
   40      3.20060    0.00000
   41      4.20655    0.00000
   42      4.89371    0.00000
   43      5.76528    0.00000
   44      6.58070    0.00000
   45      6.90404    0.00000
   46      7.02048    0.00000
   47      7.23438    0.00000
   48      7.67346    0.00000
   49      7.99692    0.00000
   50      8.19883    0.00000
   51      8.43595    0.00000
   52      8.83180    0.00000
   53      9.04108    0.00000
   54      9.24148    0.00000
   55      9.28241    0.00000
   56      9.70985    0.00000
   57      9.91332    0.00000
   58     10.20911    0.00000
   59     10.32669    0.00000
   60     10.44268    0.00000
   61     10.54413    0.00000
   62     10.74993    0.00000
   63     10.80964    0.00000
   64     11.11897    0.00000
   65     11.23648    0.00000
   66     11.59049    0.00000
   67     11.79004    0.00000
   68     11.81101    0.00000
   69     12.14491    0.00000
   70     12.47652    0.00000
   71     12.66461    0.00000
   72     12.74682    0.00000
   73     12.94753    0.00000
   74     13.04330    0.00000
   75     13.34541    0.00000

Timing:                              incl.     excl.
-----------------------------------------------------------
Basic WFS set positions:             0.001     0.001   0.0% |
Basis functions set positions:       0.020     0.020   0.1% |
LCAO WFS Initialize:                 0.974     0.024   0.1% |
 Hamiltonian:                        0.951     0.000   0.0% |
  Atomic:                            0.000     0.000   0.0% |
   XC Correction:                    0.000     0.000   0.0% |
  Calculate atomic Hamiltonians:     0.000     0.000   0.0% |
  Communicate:                       0.071     0.071   0.3% |
  Hartree integrate/restrict:        0.014     0.014   0.1% |
  Initialize Hamiltonian:            0.003     0.003   0.0% |
  Poisson:                           0.572     0.572   2.6% ||
  XC 3D grid:                        0.285     0.285   1.3% ||
  vbar:                              0.004     0.004   0.0% |
SCF-cycle:                          20.586     0.016   0.1% |
 Density:                            4.332     0.001   0.0% |
  Atomic density matrices:           3.895     3.895  17.5% |------|
  Mix:                               0.408     0.408   1.8% ||
  Multipole moments:                 0.006     0.006   0.0% |
  Normalize:                         0.004     0.004   0.0% |
  Pseudo density:                    0.017     0.007   0.0% |
   Calculate density matrix:         0.009     0.009   0.0% |
   Construct density:                0.000     0.000   0.0% |
   Symmetrize density:               0.000     0.000   0.0% |
 Hamiltonian:                       12.349     0.004   0.0% |
  Atomic:                            0.008     0.008   0.0% |
   XC Correction:                    0.000     0.000   0.0% |
  Calculate atomic Hamiltonians:     0.009     0.009   0.0% |
  Communicate:                       1.561     1.561   7.0% |--|
  Hartree integrate/restrict:        0.311     0.311   1.4% ||
  Poisson:                           4.095     4.095  18.4% |------|
  XC 3D grid:                        6.282     6.282  28.2% |----------|
  vbar:                              0.079     0.079   0.4% |
 LCAO eigensolver:                   3.889     0.003   0.0% |
  Calculate projections:             0.000     0.000   0.0% |
  DenseAtomicCorrection:             0.001     0.001   0.0% |
  Distribute overlap matrix:         3.683     3.683  16.5% |------|
  Orbital Layouts:                   0.199     0.199   0.9% |
  Potential matrix:                  0.003     0.003   0.0% |
Set symmetry:                        0.054     0.054   0.2% |
TCI: Calculate S, T, P:              0.006     0.006   0.0% |
TCI: Evaluate splines:               0.116     0.116   0.5% |
Other:                               0.546     0.546   2.4% ||
-----------------------------------------------------------
Total:                                        22.303 100.0%

Memory usage: 205.29 MiB
Date: Thu Mar 22 22:23:33 2018
