
  ___ ___ ___ _ _ _  
 |   |   |_  | | | | 
 | | | | | . | | | | 
 |__ |  _|___|_____|  1.3.1b1
 |___|_|             

User:   mkb@s91n53.grendel.cscaa.dk
Date:   Thu Mar 22 22:21:38 2018
Arch:   x86_64
Pid:    399355
Python: 2.7.13
gpaw:   /home/mkb/gpaw/gpaw
_gpaw:  /home/mkb/gpaw/build/bin.linux-x86_64-2.7/gpaw-python
ase:    /home/mkb/ase/ase (version 3.15.1b1)
numpy:  /comm/swstack/core/python/2.7.13/lib/python2.7/site-packages/numpy (version 1.13.3)
scipy:  /comm/swstack/core/python/2.7.13/lib/python2.7/site-packages/scipy (version 0.19.1)
units:  Angstrom and eV
cores:  36
Extra parameters: {'blacs': True}

Input parameters:
  basis: dzp
  gpts: [120 120  88]
  kpts: [1 1 1]
  maxiter: 99
  mixer: {backend: pulay,
          beta: 0.05,
          method: separate,
          nmaxold: 5,
          weight: 75}
  mode: lcao
  nbands: -50
  occupations: {name: fermi-dirac,
                width: 0.1}
  poissonsolver: {eps: 1e-07,
                  name: fd,
                  nn: 3,
                  relax: GS}
  xc: PBE

System changes: positions, numbers, cell, pbc, initial_charges, initial_magmoms 

Initialize ...

C-setup:
  name: Carbon
  id: 4aa54d4b901d75f77cc0ea3eec22967b
  Z: 6
  valence: 4
  core: 2
  charge: 0.0
  file: /home/esb/DFT/gpaw-setups-0.8.7929/C.PBE.gz
  cutoffs: 0.64(comp), 1.14(filt), 1.14(core), lmax=2
  valence states:
                energy  radius
    2s(2.00)   -13.751   0.635
    2p(2.00)    -5.284   0.635
    *s          13.461   0.635
    *p          21.927   0.635
    *d           0.000   0.635

  LCAO basis set for C:
    Name: dzp
    File: /home/esb/DFT/gpaw-setups-0.8.7929/C.dzp.basis.gz
    Number of radial functions: 5
    Number of spherical harmonics: 13
      l=0, rc=5.5469 Bohr: 2s-sz confined orbital
      l=1, rc=6.6719 Bohr: 2p-sz confined orbital
      l=0, rc=3.0312 Bohr: 2s-dz split-valence wave
      l=1, rc=3.7500 Bohr: 2p-dz split-valence wave
      l=2, rc=6.6719 Bohr: d-type Gaussian polarization

Reference energy: -13359.165501

Spin-paired calculation

Occupation numbers:
  Fermi-Dirac: width=0.1000 eV

Convergence criteria:
  Maximum total energy change: 0.0005 eV / electron
  Maximum integral of absolute density change: 0.0001 electrons
  Maximum integral of absolute eigenstate change: 4e-08 eV^2
  Maximum number of iterations: 99

Symmetries present (total): 1

  ( 1  0  0)
  ( 0  1  0)
  ( 0  0  1)

1 k-point (Gamma)
1 k-point in the irreducible part of the Brillouin zone
       k-points in crystal coordinates                weights
   0:     0.00000000    0.00000000    0.00000000          1/1

Wave functions: LCAO
  Diagonalizer: Serial LAPACK
  Atomic Correction: dense with blas
  Datatype: float
  Eigensolver: None 

LCAO using direct dense diagonalizer 

Densities:
  Coarse grid: 120*120*88 grid
  Fine grid: 240*240*176 grid
  Total Charge: 0.000000 

Density mixing:
  Method: separate
  Backend: pulay
  Linear mixing parameter: 0.05
  Mixing with 5 old densities
  Damping of long wave oscillations: 75 

Hamiltonian:
  XC and Coulomb potentials evaluated on a 240*240*176 grid
  Using the PBE Exchange-Correlation functional
  Interpolation: tri-quintic (5. degree polynomial)
  Poisson solver: Gauss-Seidel solver with 5 multi-grid levels
    Coarsest grid: 15 x 15 x 11 points
    Stencil: 6*3+1=19 point O(h^6) finite-difference Laplacian
    Max iterations: 1000
    Tolerance: 1.000000e-07 

Memory estimate:
  Process memory now: 205.08 MiB
  Calculator: 19.91 MiB
    Density: 9.40 MiB
      Arrays: 6.69 MiB
      Localized functions: 0.21 MiB
      Mixer: 2.50 MiB
    Hamiltonian: 9.40 MiB
      Arrays: 4.38 MiB
      XC: 0.00 MiB
      Poisson: 5.01 MiB
      vbar: 0.02 MiB
    Wavefunctions: 1.11 MiB
      C [qnM]: 0.10 MiB
      S, T [2 x qmm]: 0.44 MiB
      P [aqMi]: 0.00 MiB
      TCI: 0.00 MiB
      BasisFunctions: 0.57 MiB
      Eigensolver: 0.00 MiB

Total number of cores used: 36
Domain decomposition: 3 x 4 x 3

Number of atoms: 13
Number of atomic orbitals: 169
Number of bands in calculation: 76
Bands to converge: occupied states only
Number of valence electrons: 52

... initialized

Initializing position-dependent things.

Density initialized from atomic densities
                .----------------------------------------------------------.  
               /|                                                          |  
              / |                                                          |  
             /  |                                                          |  
            /   |                                                          |  
           /    |                                                          |  
          /     |                                                          |  
         /      |                                                          |  
        /       |                                                          |  
       /        |                                                          |  
      /         |                                                          |  
     /          |                                                          |  
    /           |                                                          |  
   /            |                                                          |  
  /             |                                                          |  
 *              |                                  C                       |  
 |              |                              C   C                       |  
 |              |                    C C C                                 |  
 |              |                  C                                       |  
 |              |                 C C                                      |  
 |              |              C C                                         |  
 |              |                                                          |  
 |              .----------------------------------------------------------.  
 |             /                                                          /   
 |            /                                                          /    
 |           /                                                          /     
 |          /                                                          /      
 |         /                                                          /       
 |        /                                                          /        
 |       /                                                          /         
 |      /                                                          /          
 |     /                                                          /           
 |    /                                                          /            
 |   /                                                          /             
 |  /                                                          /              
 | /                                                          /               
 |/                                                          /                
 *----------------------------------------------------------*                 

Positions:
   0 C     11.947702   13.167225    9.738784
   1 C     10.742896   11.693998    9.499659
   2 C     10.458751    9.626197    9.120066
   3 C     11.067080   13.639387    9.501137
   4 C     11.208520    9.446233    9.755113
   5 C     11.738796   10.131041    9.774426
   6 C     15.243074   13.632151   10.105310
   7 C      9.800453    9.837064    8.950292
   8 C     10.741541    9.023154    9.340355
   9 C     13.098027   12.993951    9.940581
  10 C     16.569925   14.243412   10.282930
  11 C     11.370187   13.024961    9.558816
  12 C     16.728598   14.291378   10.496510

Unit cell:
           periodic     x           y           z      points  spacing
  1. axis:    no    24.000000    0.000000    0.000000   120     0.2000
  2. axis:    no     0.000000   24.000000    0.000000   120     0.2000
  3. axis:    no     0.000000    0.000000   18.000000    88     0.2045

  Lengths:  24.000000  24.000000  18.000000
  Angles:   90.000000  90.000000  90.000000

Effective grid spacing dv^(1/3) = 0.2015

                     log10-error:    total        iterations:
           time      wfs    density  energy       fermi  poisson
iter:   1  22:21:40          +inf   397.101778    1      6      
iter:   2  22:21:41         -0.46   419.608114    5      3      
iter:   3  22:21:42         -0.52   431.612208    33     5      
iter:   4  22:21:43         -0.50   438.397017    4      3      
iter:   5  22:21:44         -0.53   439.203509    3      2      
iter:   6  22:21:45         -0.53   440.048092    3      2      
iter:   7  22:21:46         -0.53   460.282531    25     4      
iter:   8  22:21:48         -0.71   463.219196    33     4      
iter:   9  22:21:49         -0.62   467.816824    3      3      
iter:  10  22:21:50         -0.73   470.185432    31     3      
iter:  11  22:21:51         -0.82   473.290689    4      3      
iter:  12  22:21:52         -0.79   478.527209    30     4      
iter:  13  22:21:53         -0.94   480.928422    31     3      
iter:  14  22:21:54         -1.11   481.615000    28     3      
iter:  15  22:21:55         -1.30   481.817817    3      3      
iter:  16  22:21:56         -1.40   481.920784    3      3      
iter:  17  22:21:57         -1.56   481.940080    3      3      
iter:  18  22:21:58         -1.74   481.945602    3      2      
iter:  19  22:21:59         -1.82   481.929031    3      2      
iter:  20  22:22:00         -1.95   481.948808    3      2      
iter:  21  22:22:01         -2.05   481.950327    3      2      
iter:  22  22:22:02         -2.21   481.946997    3      3      
iter:  23  22:22:03         -2.37   481.952853    3      2      
iter:  24  22:22:04         -2.58   481.950846    3      2      
iter:  25  22:22:05         -2.79   481.949023    2      1      
iter:  26  22:22:06         -2.90   481.947784    2      1      
iter:  27  22:22:07         -2.95   481.946994    3      2      
iter:  28  22:22:08         -3.19   481.949686    2      1      
iter:  29  22:22:09         -3.34   481.951974    2      1      
iter:  30  22:22:10         -3.51   481.947093    2      1      
iter:  31  22:22:11         -3.71   481.946147    2      1      
iter:  32  22:22:12         -3.82   481.945794    2      1      
iter:  33  22:22:12         -3.94   481.946039    2      1      
iter:  34  22:22:13         -4.05   481.946934    2      1      

Converged after 34 iterations.

Dipole moment: (1.073350, -0.050234, 0.243577) |e|*Ang

Energy contributions relative to reference atoms: (reference = -13359.165501)

Kinetic:       +1222.313176
Potential:     -514.523543
External:        +0.000000
XC:            -234.775272
Entropy (-ST):   -0.247024
Local:           +9.056085
--------------------------
Free energy:   +481.823422
Extrapolated:  +481.946934

Fermi level: -4.99711

 Band  Eigenvalues  Occupancy
    0    -34.63836    2.00000
    1    -30.11011    2.00000
    2    -30.06406    2.00000
    3    -27.84740    2.00000
    4    -26.54522    2.00000
    5    -26.41815    2.00000
    6    -23.56077    2.00000
    7    -23.08001    2.00000
    8    -22.44985    2.00000
    9    -22.34449    2.00000
   10    -19.79497    2.00000
   11    -18.29215    2.00000
   12    -17.54219    2.00000
   13    -17.02419    2.00000
   14    -16.86142    2.00000
   15    -11.94119    2.00000
   16    -10.73039    2.00000
   17    -10.47362    2.00000
   18     -8.06132    2.00000
   19     -6.98994    2.00000
   20     -6.72586    2.00000
   21     -6.24535    1.99999
   22     -5.82709    1.99950
   23     -5.69727    1.99818
   24     -5.51554    1.98886
   25     -5.11678    1.53586
   26     -4.86330    0.41564
   27     -4.65283    0.06197
   28     -3.72858    0.00001
   29     -2.61155    0.00000
   30     -1.68470    0.00000
   31     -0.13560    0.00000
   32      0.29370    0.00000
   33      0.74537    0.00000
   34      2.85397    0.00000
   35      4.36508    0.00000
   36      4.67367    0.00000
   37      5.04026    0.00000
   38      5.62536    0.00000
   39      5.70119    0.00000
   40      5.94799    0.00000
   41      6.44287    0.00000
   42      6.69089    0.00000
   43      7.88018    0.00000
   44      8.46034    0.00000
   45      8.56817    0.00000
   46      8.71149    0.00000
   47      8.94560    0.00000
   48      9.01458    0.00000
   49      9.48581    0.00000
   50      9.58539    0.00000
   51      9.95686    0.00000
   52     10.14843    0.00000
   53     10.36159    0.00000
   54     10.68179    0.00000
   55     10.81628    0.00000
   56     11.86038    0.00000
   57     12.03921    0.00000
   58     12.15601    0.00000
   59     12.92917    0.00000
   60     13.04482    0.00000
   61     13.22630    0.00000
   62     13.67351    0.00000
   63     14.27665    0.00000
   64     15.03231    0.00000
   65     15.22497    0.00000
   66     15.48305    0.00000
   67     15.63461    0.00000
   68     15.73912    0.00000
   69     16.58426    0.00000
   70     16.83193    0.00000
   71     17.06676    0.00000
   72     17.41486    0.00000
   73     18.24122    0.00000
   74     18.88185    0.00000
   75     19.29559    0.00000

Timing:                              incl.     excl.
-----------------------------------------------------------
Basic WFS set positions:             0.001     0.001   0.0% |
Basis functions set positions:       0.021     0.021   0.1% |
LCAO WFS Initialize:                 0.974     0.023   0.1% |
 Hamiltonian:                        0.951     0.000   0.0% |
  Atomic:                            0.000     0.000   0.0% |
   XC Correction:                    0.000     0.000   0.0% |
  Calculate atomic Hamiltonians:     0.000     0.000   0.0% |
  Communicate:                       0.071     0.071   0.2% |
  Hartree integrate/restrict:        0.014     0.014   0.0% |
  Initialize Hamiltonian:            0.004     0.004   0.0% |
  Poisson:                           0.572     0.572   1.6% ||
  XC 3D grid:                        0.285     0.285   0.8% |
  vbar:                              0.004     0.004   0.0% |
SCF-cycle:                          33.623     0.030   0.1% |
 Density:                            7.411     0.001   0.0% |
  Atomic density matrices:           6.753     6.753  19.1% |-------|
  Mix:                               0.615     0.615   1.7% ||
  Multipole moments:                 0.009     0.009   0.0% |
  Normalize:                         0.006     0.006   0.0% |
  Pseudo density:                    0.027     0.012   0.0% |
   Calculate density matrix:         0.014     0.014   0.0% |
   Construct density:                0.000     0.000   0.0% |
   Symmetrize density:               0.001     0.001   0.0% |
 Hamiltonian:                       19.825     0.006   0.0% |
  Atomic:                            0.012     0.012   0.0% |
   XC Correction:                    0.000     0.000   0.0% |
  Calculate atomic Hamiltonians:     0.013     0.013   0.0% |
  Communicate:                       2.341     2.341   6.6% |--|
  Hartree integrate/restrict:        0.465     0.465   1.3% ||
  Poisson:                           7.465     7.465  21.1% |-------|
  XC 3D grid:                        9.397     9.397  26.6% |----------|
  vbar:                              0.126     0.126   0.4% |
 LCAO eigensolver:                   6.357     0.004   0.0% |
  Calculate projections:             0.000     0.000   0.0% |
  DenseAtomicCorrection:             0.001     0.001   0.0% |
  Distribute overlap matrix:         6.056     6.056  17.1% |------|
  Orbital Layouts:                   0.291     0.291   0.8% |
  Potential matrix:                  0.004     0.004   0.0% |
Set symmetry:                        0.028     0.028   0.1% |
TCI: Calculate S, T, P:              0.006     0.006   0.0% |
TCI: Evaluate splines:               0.116     0.116   0.3% |
Other:                               0.553     0.553   1.6% ||
-----------------------------------------------------------
Total:                                        35.322 100.0%

Memory usage: 205.15 MiB
Date: Thu Mar 22 22:22:13 2018
