
  ___ ___ ___ _ _ _  
 |   |   |_  | | | | 
 | | | | | . | | | | 
 |__ |  _|___|_____|  1.3.1b1
 |___|_|             

User:   mkb@s91n53.grendel.cscaa.dk
Date:   Thu Mar 22 22:43:17 2018
Arch:   x86_64
Pid:    399355
Python: 2.7.13
gpaw:   /home/mkb/gpaw/gpaw
_gpaw:  /home/mkb/gpaw/build/bin.linux-x86_64-2.7/gpaw-python
ase:    /home/mkb/ase/ase (version 3.15.1b1)
numpy:  /comm/swstack/core/python/2.7.13/lib/python2.7/site-packages/numpy (version 1.13.3)
scipy:  /comm/swstack/core/python/2.7.13/lib/python2.7/site-packages/scipy (version 0.19.1)
units:  Angstrom and eV
cores:  36
Extra parameters: {'blacs': True}

Input parameters:
  basis: dzp
  gpts: [120 120  88]
  kpts: [1 1 1]
  maxiter: 99
  mixer: {backend: pulay,
          beta: 0.05,
          method: separate,
          nmaxold: 5,
          weight: 75}
  mode: lcao
  nbands: -50
  occupations: {name: fermi-dirac,
                width: 0.1}
  poissonsolver: {eps: 1e-07,
                  name: fd,
                  nn: 3,
                  relax: GS}
  xc: PBE

System changes: positions, numbers, cell, pbc, initial_charges, initial_magmoms 

Initialize ...

C-setup:
  name: Carbon
  id: 4aa54d4b901d75f77cc0ea3eec22967b
  Z: 6
  valence: 4
  core: 2
  charge: 0.0
  file: /home/esb/DFT/gpaw-setups-0.8.7929/C.PBE.gz
  cutoffs: 0.64(comp), 1.14(filt), 1.14(core), lmax=2
  valence states:
                energy  radius
    2s(2.00)   -13.751   0.635
    2p(2.00)    -5.284   0.635
    *s          13.461   0.635
    *p          21.927   0.635
    *d           0.000   0.635

  LCAO basis set for C:
    Name: dzp
    File: /home/esb/DFT/gpaw-setups-0.8.7929/C.dzp.basis.gz
    Number of radial functions: 5
    Number of spherical harmonics: 13
      l=0, rc=5.5469 Bohr: 2s-sz confined orbital
      l=1, rc=6.6719 Bohr: 2p-sz confined orbital
      l=0, rc=3.0312 Bohr: 2s-dz split-valence wave
      l=1, rc=3.7500 Bohr: 2p-dz split-valence wave
      l=2, rc=6.6719 Bohr: d-type Gaussian polarization

Reference energy: -13359.165501

Spin-paired calculation

Occupation numbers:
  Fermi-Dirac: width=0.1000 eV

Convergence criteria:
  Maximum total energy change: 0.0005 eV / electron
  Maximum integral of absolute density change: 0.0001 electrons
  Maximum integral of absolute eigenstate change: 4e-08 eV^2
  Maximum number of iterations: 99

Symmetries present (total): 1

  ( 1  0  0)
  ( 0  1  0)
  ( 0  0  1)

1 k-point (Gamma)
1 k-point in the irreducible part of the Brillouin zone
       k-points in crystal coordinates                weights
   0:     0.00000000    0.00000000    0.00000000          1/1

Wave functions: LCAO
  Diagonalizer: Serial LAPACK
  Atomic Correction: dense with blas
  Datatype: float
  Eigensolver: None 

LCAO using direct dense diagonalizer 

Densities:
  Coarse grid: 120*120*88 grid
  Fine grid: 240*240*176 grid
  Total Charge: 0.000000 

Density mixing:
  Method: separate
  Backend: pulay
  Linear mixing parameter: 0.05
  Mixing with 5 old densities
  Damping of long wave oscillations: 75 

Hamiltonian:
  XC and Coulomb potentials evaluated on a 240*240*176 grid
  Using the PBE Exchange-Correlation functional
  Interpolation: tri-quintic (5. degree polynomial)
  Poisson solver: Gauss-Seidel solver with 5 multi-grid levels
    Coarsest grid: 15 x 15 x 11 points
    Stencil: 6*3+1=19 point O(h^6) finite-difference Laplacian
    Max iterations: 1000
    Tolerance: 1.000000e-07 

Memory estimate:
  Process memory now: 205.49 MiB
  Calculator: 19.91 MiB
    Density: 9.40 MiB
      Arrays: 6.69 MiB
      Localized functions: 0.21 MiB
      Mixer: 2.50 MiB
    Hamiltonian: 9.40 MiB
      Arrays: 4.38 MiB
      XC: 0.00 MiB
      Poisson: 5.01 MiB
      vbar: 0.02 MiB
    Wavefunctions: 1.11 MiB
      C [qnM]: 0.10 MiB
      S, T [2 x qmm]: 0.44 MiB
      P [aqMi]: 0.00 MiB
      TCI: 0.00 MiB
      BasisFunctions: 0.57 MiB
      Eigensolver: 0.00 MiB

Total number of cores used: 36
Domain decomposition: 3 x 4 x 3

Number of atoms: 13
Number of atomic orbitals: 169
Number of bands in calculation: 76
Bands to converge: occupied states only
Number of valence electrons: 52

... initialized

Initializing position-dependent things.

Density initialized from atomic densities
                .----------------------------------------------------------.  
               /|                                                          |  
              / |                                                          |  
             /  |                                                          |  
            /   |                                                          |  
           /    |                                                          |  
          /     |                                                          |  
         /      |                                                          |  
        /       |                                                          |  
       /        |                                                          |  
      /         |                                                          |  
     /          |                                                          |  
    /           |                                                          |  
   /            |                                                          |  
  /             |                                                          |  
 *              |                           C                              |  
 |              |                              C                           |  
 |              |                     CC CC   C                            |  
 |              |                   C  C                                   |  
 |              |                C  CC                                     |  
 |              |                 C                                        |  
 |              |                                                          |  
 |              .----------------------------------------------------------.  
 |             /                                                          /   
 |            /                                                          /    
 |           /                                                          /     
 |          /                                                          /      
 |         /                                                          /       
 |        /                                                          /        
 |       /                                                          /         
 |      /                                                          /          
 |     /                                                          /           
 |    /                                                          /            
 |   /                                                          /             
 |  /                                                          /              
 | /                                                          /               
 |/                                                          /                
 *----------------------------------------------------------*                 

Positions:
   0 C     12.468736   12.360319    9.738784
   1 C     11.152997   11.959692    9.499659
   2 C     11.428411   10.653310    9.120066
   3 C     12.958295   13.685613    9.501137
   4 C     12.270986    9.674528    9.755113
   5 C     12.643028   11.018987    9.774426
   6 C     15.062696   12.226858   10.105310
   7 C     10.105335   11.289747    8.950292
   8 C     10.965371    9.206689    9.340355
   9 C     13.728962   11.814748    9.940581
  10 C     13.911589   14.403719   10.282930
  11 C     11.527865   13.364960    9.558816
  12 C     15.222626   13.680615   10.496510

Unit cell:
           periodic     x           y           z      points  spacing
  1. axis:    no    24.000000    0.000000    0.000000   120     0.2000
  2. axis:    no     0.000000   24.000000    0.000000   120     0.2000
  3. axis:    no     0.000000    0.000000   18.000000    88     0.2045

  Lengths:  24.000000  24.000000  18.000000
  Angles:   90.000000  90.000000  90.000000

Effective grid spacing dv^(1/3) = 0.2015

                     log10-error:    total        iterations:
           time      wfs    density  energy       fermi  poisson
iter:   1  22:43:19          +inf   -77.870268    2      7      
iter:   2  22:43:20         -0.90   -76.756109    4      3      
iter:   3  22:43:21         -0.97   -76.253899    4      3      
iter:   4  22:43:22         -1.05   -76.235475    3      2      
iter:   5  22:43:23         -1.05   -75.780536    34     3      
iter:   6  22:43:24         -1.37   -75.736775    2      2      
iter:   7  22:43:25         -1.40   -75.658811    32     3      
iter:   8  22:43:26         -1.77   -75.644818    3      2      
iter:   9  22:43:27         -1.86   -75.649330    2      3      
iter:  10  22:43:28         -1.98   -75.648803    2      2      
iter:  11  22:43:29         -2.01   -75.651294    3      2      
iter:  12  22:43:30         -2.42   -75.639162    2      1      
iter:  13  22:43:31         -2.53   -75.639207    3      2      
iter:  14  22:43:32         -2.65   -75.645661    2      1      
iter:  15  22:43:33         -2.75   -75.634758    2      2      
iter:  16  22:43:34         -2.86   -75.641213    2      1      
iter:  17  22:43:35         -3.08   -75.637169    2      1      
iter:  18  22:43:36         -3.22   -75.637293    2      1      
iter:  19  22:43:37         -3.25   -75.640891    2      1      
iter:  20  22:43:38         -3.19   -75.636974    2      1      
iter:  21  22:43:39         -3.45   -75.635902    2      1      
iter:  22  22:43:40         -3.50   -75.635454    2      1      
iter:  23  22:43:40         -3.48   -75.635375    2      1      
iter:  24  22:43:41         -4.10   -75.636566    2      1      

Converged after 24 iterations.

Dipole moment: (-0.295190, -0.104788, -0.071162) |e|*Ang

Energy contributions relative to reference atoms: (reference = -13359.165501)

Kinetic:       +112.541092
Potential:      -88.259069
External:        +0.000000
XC:            -101.272583
Entropy (-ST):   -0.263235
Local:           +1.485612
--------------------------
Free energy:    -75.768184
Extrapolated:   -75.636566

Fermi level: -5.26855

 Band  Eigenvalues  Occupancy
    0    -31.03978    2.00000
    1    -27.49122    2.00000
    2    -25.54503    2.00000
    3    -24.30535    2.00000
    4    -22.23010    2.00000
    5    -19.78068    2.00000
    6    -18.90981    2.00000
    7    -17.79463    2.00000
    8    -16.65265    2.00000
    9    -15.79989    2.00000
   10    -14.43137    2.00000
   11    -13.77503    2.00000
   12    -12.98316    2.00000
   13    -12.27126    2.00000
   14    -11.87598    2.00000
   15    -11.28762    2.00000
   16    -10.60789    2.00000
   17     -9.35788    2.00000
   18     -8.97230    2.00000
   19     -8.73628    2.00000
   20     -8.11474    2.00000
   21     -7.70983    2.00000
   22     -7.05232    2.00000
   23     -6.35636    1.99996
   24     -5.71304    1.97680
   25     -5.35445    1.40490
   26     -5.18600    0.60920
   27     -4.73015    0.00914
   28     -3.98932    0.00001
   29     -3.89290    0.00000
   30     -2.83044    0.00000
   31     -2.20795    0.00000
   32     -1.85721    0.00000
   33     -1.52974    0.00000
   34     -1.11681    0.00000
   35     -0.29449    0.00000
   36      0.93161    0.00000
   37      1.58213    0.00000
   38      2.62722    0.00000
   39      3.11768    0.00000
   40      3.70530    0.00000
   41      4.63763    0.00000
   42      5.64818    0.00000
   43      5.75719    0.00000
   44      6.29156    0.00000
   45      6.77951    0.00000
   46      7.09083    0.00000
   47      7.57299    0.00000
   48      7.87987    0.00000
   49      8.02453    0.00000
   50      8.36272    0.00000
   51      8.43258    0.00000
   52      8.56159    0.00000
   53      8.88931    0.00000
   54      9.13293    0.00000
   55      9.41248    0.00000
   56      9.94863    0.00000
   57     10.04943    0.00000
   58     10.12153    0.00000
   59     10.34503    0.00000
   60     10.45846    0.00000
   61     10.53134    0.00000
   62     10.57121    0.00000
   63     10.90170    0.00000
   64     11.05783    0.00000
   65     11.19946    0.00000
   66     11.50334    0.00000
   67     11.81313    0.00000
   68     11.92677    0.00000
   69     12.06106    0.00000
   70     12.48504    0.00000
   71     12.54219    0.00000
   72     12.94186    0.00000
   73     13.25580    0.00000
   74     13.37023    0.00000
   75     13.53119    0.00000

Timing:                              incl.     excl.
-----------------------------------------------------------
Basic WFS set positions:             0.001     0.001   0.0% |
Basis functions set positions:       0.021     0.021   0.1% |
LCAO WFS Initialize:                 1.067     0.024   0.1% |
 Hamiltonian:                        1.043     0.000   0.0% |
  Atomic:                            0.000     0.000   0.0% |
   XC Correction:                    0.000     0.000   0.0% |
  Calculate atomic Hamiltonians:     0.000     0.000   0.0% |
  Communicate:                       0.071     0.071   0.3% |
  Hartree integrate/restrict:        0.014     0.014   0.1% |
  Initialize Hamiltonian:            0.003     0.003   0.0% |
  Poisson:                           0.665     0.665   2.7% ||
  XC 3D grid:                        0.284     0.284   1.1% |
  vbar:                              0.004     0.004   0.0% |
SCF-cycle:                          22.951     0.017   0.1% |
 Density:                            5.553     0.001   0.0% |
  Atomic density matrices:           5.094     5.094  20.6% |-------|
  Mix:                               0.428     0.428   1.7% ||
  Multipole moments:                 0.007     0.007   0.0% |
  Normalize:                         0.005     0.005   0.0% |
  Pseudo density:                    0.018     0.008   0.0% |
   Calculate density matrix:         0.009     0.009   0.0% |
   Construct density:                0.000     0.000   0.0% |
   Symmetrize density:               0.000     0.000   0.0% |
 Hamiltonian:                       12.513     0.004   0.0% |
  Atomic:                            0.008     0.008   0.0% |
   XC Correction:                    0.000     0.000   0.0% |
  Calculate atomic Hamiltonians:     0.009     0.009   0.0% |
  Communicate:                       1.638     1.638   6.6% |--|
  Hartree integrate/restrict:        0.327     0.327   1.3% ||
  Poisson:                           3.894     3.894  15.7% |-----|
  XC 3D grid:                        6.550     6.550  26.5% |----------|
  vbar:                              0.084     0.084   0.3% |
 LCAO eigensolver:                   4.868     0.003   0.0% |
  Calculate projections:             0.000     0.000   0.0% |
  DenseAtomicCorrection:             0.001     0.001   0.0% |
  Distribute overlap matrix:         4.655     4.655  18.8% |-------|
  Orbital Layouts:                   0.206     0.206   0.8% |
  Potential matrix:                  0.003     0.003   0.0% |
Set symmetry:                        0.021     0.021   0.1% |
TCI: Calculate S, T, P:              0.006     0.006   0.0% |
TCI: Evaluate splines:               0.113     0.113   0.5% |
Other:                               0.572     0.572   2.3% ||
-----------------------------------------------------------
Total:                                        24.752 100.0%

Memory usage: 205.56 MiB
Date: Thu Mar 22 22:43:41 2018
