
  ___ ___ ___ _ _ _  
 |   |   |_  | | | | 
 | | | | | . | | | | 
 |__ |  _|___|_____|  1.3.1b1
 |___|_|             

User:   mkb@s91n12.grendel.cscaa.dk
Date:   Fri Mar 23 09:21:44 2018
Arch:   x86_64
Pid:    423150
Python: 2.7.13
gpaw:   /home/mkb/gpaw/gpaw
_gpaw:  /home/mkb/gpaw/build/bin.linux-x86_64-2.7/gpaw-python
ase:    /home/mkb/ase/ase (version 3.15.1b1)
numpy:  /comm/swstack/core/python/2.7.13/lib/python2.7/site-packages/numpy (version 1.13.3)
scipy:  /comm/swstack/core/python/2.7.13/lib/python2.7/site-packages/scipy (version 0.19.1)
units:  Angstrom and eV
cores:  36
Extra parameters: {'blacs': True}

Input parameters:
  basis: dzp
  gpts: [120 120  88]
  kpts: [1 1 1]
  maxiter: 99
  mixer: {backend: pulay,
          beta: 0.05,
          method: separate,
          nmaxold: 5,
          weight: 75}
  mode: lcao
  nbands: -50
  occupations: {name: fermi-dirac,
                width: 0.1}
  poissonsolver: {eps: 1e-07,
                  name: fd,
                  nn: 3,
                  relax: GS}
  xc: PBE

System changes: positions, numbers, cell, pbc, initial_charges, initial_magmoms 

Initialize ...

C-setup:
  name: Carbon
  id: 4aa54d4b901d75f77cc0ea3eec22967b
  Z: 6
  valence: 4
  core: 2
  charge: 0.0
  file: /home/esb/DFT/gpaw-setups-0.8.7929/C.PBE.gz
  cutoffs: 0.64(comp), 1.14(filt), 1.14(core), lmax=2
  valence states:
                energy  radius
    2s(2.00)   -13.751   0.635
    2p(2.00)    -5.284   0.635
    *s          13.461   0.635
    *p          21.927   0.635
    *d           0.000   0.635

  LCAO basis set for C:
    Name: dzp
    File: /home/esb/DFT/gpaw-setups-0.8.7929/C.dzp.basis.gz
    Number of radial functions: 5
    Number of spherical harmonics: 13
      l=0, rc=5.5469 Bohr: 2s-sz confined orbital
      l=1, rc=6.6719 Bohr: 2p-sz confined orbital
      l=0, rc=3.0312 Bohr: 2s-dz split-valence wave
      l=1, rc=3.7500 Bohr: 2p-dz split-valence wave
      l=2, rc=6.6719 Bohr: d-type Gaussian polarization

Reference energy: -13359.165501

Spin-paired calculation

Occupation numbers:
  Fermi-Dirac: width=0.1000 eV

Convergence criteria:
  Maximum total energy change: 0.0005 eV / electron
  Maximum integral of absolute density change: 0.0001 electrons
  Maximum integral of absolute eigenstate change: 4e-08 eV^2
  Maximum number of iterations: 99

Symmetries present (total): 1

  ( 1  0  0)
  ( 0  1  0)
  ( 0  0  1)

1 k-point (Gamma)
1 k-point in the irreducible part of the Brillouin zone
       k-points in crystal coordinates                weights
   0:     0.00000000    0.00000000    0.00000000          1/1

Wave functions: LCAO
  Diagonalizer: Serial LAPACK
  Atomic Correction: dense with blas
  Datatype: float
  Eigensolver: None 

LCAO using direct dense diagonalizer 

Densities:
  Coarse grid: 120*120*88 grid
  Fine grid: 240*240*176 grid
  Total Charge: 0.000000 

Density mixing:
  Method: separate
  Backend: pulay
  Linear mixing parameter: 0.05
  Mixing with 5 old densities
  Damping of long wave oscillations: 75 

Hamiltonian:
  XC and Coulomb potentials evaluated on a 240*240*176 grid
  Using the PBE Exchange-Correlation functional
  Interpolation: tri-quintic (5. degree polynomial)
  Poisson solver: Gauss-Seidel solver with 5 multi-grid levels
    Coarsest grid: 15 x 15 x 11 points
    Stencil: 6*3+1=19 point O(h^6) finite-difference Laplacian
    Max iterations: 1000
    Tolerance: 1.000000e-07 

Memory estimate:
  Process memory now: 96.34 MiB
  Calculator: 19.91 MiB
    Density: 9.40 MiB
      Arrays: 6.69 MiB
      Localized functions: 0.21 MiB
      Mixer: 2.50 MiB
    Hamiltonian: 9.40 MiB
      Arrays: 4.38 MiB
      XC: 0.00 MiB
      Poisson: 5.01 MiB
      vbar: 0.02 MiB
    Wavefunctions: 1.11 MiB
      C [qnM]: 0.10 MiB
      S, T [2 x qmm]: 0.44 MiB
      P [aqMi]: 0.00 MiB
      TCI: 0.00 MiB
      BasisFunctions: 0.57 MiB
      Eigensolver: 0.00 MiB

Total number of cores used: 36
Domain decomposition: 3 x 4 x 3

Number of atoms: 13
Number of atomic orbitals: 169
Number of bands in calculation: 76
Bands to converge: occupied states only
Number of valence electrons: 52

... initialized

Initializing position-dependent things.

Density initialized from atomic densities
                .----------------------------------------------------------.  
               /|                                                          |  
              / |                                                          |  
             /  |                                                          |  
            /   |                                                          |  
           /    |                                                          |  
          /     |                                                          |  
         /      |                                                          |  
        /       |                                                          |  
       /        |                                                          |  
      /         |                                                          |  
     /          |                                                          |  
    /           |                                                          |  
   /            |                                                          |  
  /             |                                                          |  
 *              |                                                          |  
 |              |                   C                                      |  
 |              |                                                          |  
 |              |           C C     C                                      |  
 |              |          C    C      C  C    C                           |  
 |              |                                                          |  
 |              |                C  C   C                                  |  
 |              .----------------------------------------------------------.  
 |             /                                                          /   
 |            /                                                          /    
 |           /                                                          /     
 |          /                                                          /      
 |         /                                                          /       
 |        /                                                          /        
 |       /                                                          /         
 |      /                                                          /          
 |     /                                                          /           
 |    /                                                          /            
 |   /                                                          /             
 |  /                                                          /              
 | /                                                          /               
 |/                                                          /                
 *----------------------------------------------------------*                 

Positions:
   0 C     12.824615    9.579473    9.558372
   1 C     15.600046   12.769384    8.585875
   2 C     11.117486    8.005894    9.117194
   3 C      9.982324    9.872440    9.541213
   4 C     13.651722    8.979215    8.512258
   5 C     14.171630   10.652951    9.617326
   6 C     10.451620   15.156717    9.600023
   7 C      8.358213   13.013440    8.806563
   8 C     12.230672    7.690420    9.275928
   9 C      8.108877   11.384576    9.577490
  10 C     10.604910   13.740282    8.340672
  11 C      7.509189   11.752373    8.336750
  12 C     11.042132   12.854159    8.748144

Unit cell:
           periodic     x           y           z      points  spacing
  1. axis:    no    24.000000    0.000000    0.000000   120     0.2000
  2. axis:    no     0.000000   24.000000    0.000000   120     0.2000
  3. axis:    no     0.000000    0.000000   18.000000    88     0.2045

  Lengths:  24.000000  24.000000  18.000000
  Angles:   90.000000  90.000000  90.000000

Effective grid spacing dv^(1/3) = 0.2015

                     log10-error:    total        iterations:
           time      wfs    density  energy       fermi  poisson
iter:   1  09:21:46          +inf   -67.103899    2      6      
iter:   2  09:21:47         -0.66   -61.179586    3      3      
iter:   3  09:21:47         -0.81   -58.333991    4      3      
iter:   4  09:21:48         -0.88   -57.360757    3      3      
iter:   5  09:21:48         -0.91   -56.712727    3      3      
iter:   6  09:21:49         -0.90   -56.196895    4      2      
iter:   7  09:21:49         -1.01   -55.874043    3      3      
iter:   8  09:21:50         -1.07   -55.695548    3      2      
iter:   9  09:21:50         -1.16   -55.436678    4      3      
iter:  10  09:21:51         -1.25   -55.354505    4      3      
iter:  11  09:21:51         -1.41   -55.278415    4      3      
iter:  12  09:21:52         -1.64   -55.262240    3      2      
iter:  13  09:21:52         -1.71   -55.262299    3      2      
iter:  14  09:21:53         -1.75   -55.241499    3      2      
iter:  15  09:21:53         -1.92   -55.243867    3      2      
iter:  16  09:21:54         -2.00   -55.235548    2      2      
iter:  17  09:21:54         -2.17   -55.232776    3      2      
iter:  18  09:21:55         -2.31   -55.231001    3      2      
iter:  19  09:21:55         -2.38   -55.231385    2      1      
iter:  20  09:21:56         -2.38   -55.232855    3      1      
iter:  21  09:21:56         -2.50   -55.231069    3      2      
iter:  22  09:21:57         -2.47   -55.228684    3      1      
iter:  23  09:21:57         -2.72   -55.228289    3      2      
iter:  24  09:21:58         -2.72   -55.233461    3      1      
iter:  25  09:21:58         -2.93   -55.232354    2      1      
iter:  26  09:21:59         -2.94   -55.227805    3      1      
iter:  27  09:21:59         -3.56   -55.228518    2      1      
iter:  28  09:21:59         -3.63   -55.228795    2      1      
iter:  29  09:22:00         -3.64   -55.228024    2      1      
iter:  30  09:22:00         -3.75   -55.228105    2      1      
iter:  31  09:22:01         -3.71   -55.228152    2      1      
iter:  32  09:22:01         -3.76   -55.228453    2      1      
iter:  33  09:22:02         -4.14   -55.228350    2      1      

Converged after 33 iterations.

Dipole moment: (0.200153, 0.685218, 0.135849) |e|*Ang

Energy contributions relative to reference atoms: (reference = -13359.165501)

Kinetic:        +35.941104
Potential:      -40.258097
External:        +0.000000
XC:             -51.830018
Entropy (-ST):   -0.733661
Local:           +1.285491
--------------------------
Free energy:    -55.595181
Extrapolated:   -55.228350

Fermi level: -5.81932

 Band  Eigenvalues  Occupancy
    0    -21.10789    2.00000
    1    -21.02058    2.00000
    2    -20.26028    2.00000
    3    -19.35965    2.00000
    4    -15.03706    2.00000
    5    -14.78754    2.00000
    6    -14.66947    2.00000
    7    -14.13297    2.00000
    8    -13.47660    2.00000
    9    -11.27436    2.00000
   10    -11.05440    2.00000
   11    -10.00997    2.00000
   12     -9.47029    2.00000
   13     -9.17087    2.00000
   14     -9.00522    2.00000
   15     -8.64596    2.00000
   16     -8.41686    2.00000
   17     -8.33266    2.00000
   18     -7.94799    2.00000
   19     -7.47809    2.00000
   20     -7.05179    1.99999
   21     -6.97248    1.99998
   22     -6.55209    1.99869
   23     -6.36944    1.99187
   24     -5.86746    1.23620
   25     -5.82076    1.00722
   26     -5.72441    0.55814
   27     -5.70128    0.46997
   28     -5.65941    0.33624
   29     -5.63912    0.28323
   30     -5.47575    0.06240
   31     -5.44512    0.04632
   32     -5.28676    0.00968
   33     -4.79729    0.00007
   34     -4.31390    0.00000
   35     -3.70571    0.00000
   36     -3.03450    0.00000
   37     -2.56831    0.00000
   38     -1.97464    0.00000
   39     -1.73149    0.00000
   40     -1.15588    0.00000
   41      0.00238    0.00000
   42      1.35011    0.00000
   43      1.70999    0.00000
   44      2.16962    0.00000
   45      2.79308    0.00000
   46      3.28958    0.00000
   47      3.43851    0.00000
   48      5.68082    0.00000
   49      6.03743    0.00000
   50      7.53222    0.00000
   51      8.28571    0.00000
   52      8.65913    0.00000
   53      8.67585    0.00000
   54      8.71071    0.00000
   55      8.96918    0.00000
   56      9.16712    0.00000
   57      9.24769    0.00000
   58      9.30098    0.00000
   59      9.58359    0.00000
   60      9.72901    0.00000
   61      9.89352    0.00000
   62     10.02841    0.00000
   63     10.11618    0.00000
   64     10.14310    0.00000
   65     10.34691    0.00000
   66     10.49558    0.00000
   67     10.74977    0.00000
   68     10.88432    0.00000
   69     11.03336    0.00000
   70     11.17759    0.00000
   71     11.34965    0.00000
   72     11.56297    0.00000
   73     11.71228    0.00000
   74     11.80328    0.00000
   75     12.23932    0.00000


Forces in eV/Ang:
  0 C     4.45865    0.80910   -2.08914
  1 C    -0.68282   -1.04436    0.49121
  2 C   -14.24670    5.60971   -1.02108
  3 C     0.89826   -0.65507   -0.39704
  4 C    -1.95016    0.61491    2.80433
  5 C    -3.41135   -2.66043   -0.92170
  6 C     0.40608   -4.27988   -4.10375
  7 C    -2.84658   -3.37603   -0.95247
  8 C    14.21974   -1.28183    1.13031
  9 C    -0.53866    0.33101   -3.95092
 10 C   -12.99203   30.49560   -7.60179
 11 C     4.01767    2.28282    4.80209
 12 C    12.69143  -26.89526   11.80794

System changes: positions 

Initializing position-dependent things.

Density initialized from wave functions
                .----------------------------------------------------------.  
               /|                                                          |  
              / |                                                          |  
             /  |                                                          |  
            /   |                                                          |  
           /    |                                                          |  
          /     |                                                          |  
         /      |                                                          |  
        /       |                                                          |  
       /        |                                                          |  
      /         |                                                          |  
     /          |                                                          |  
    /           |                                                          |  
   /            |                                                          |  
  /             |                                                          |  
 *              |                                                          |  
 |              |                   C                                      |  
 |              |                                                          |  
 |              |           C C     C                                      |  
 |              |          C    C      C  C    C                           |  
 |              |                                                          |  
 |              |                C  C   C                                  |  
 |              .----------------------------------------------------------.  
 |             /                                                          /   
 |            /                                                          /    
 |           /                                                          /     
 |          /                                                          /      
 |         /                                                          /       
 |        /                                                          /        
 |       /                                                          /         
 |      /                                                          /          
 |     /                                                          /           
 |    /                                                          /            
 |   /                                                          /             
 |  /                                                          /              
 | /                                                          /               
 |/                                                          /                
 *----------------------------------------------------------*                 

Positions:
   0 C     12.829859    9.580425    9.555915
   1 C     15.599243   12.768156    8.586452
   2 C     11.100729    8.012492    9.115993
   3 C      9.983380    9.871670    9.540746
   4 C     13.649428    8.979939    8.515556
   5 C     14.167618   10.649822    9.616242
   6 C     10.452097   15.151683    9.595197
   7 C      8.354865   13.009469    8.805443
   8 C     12.247397    7.688913    9.277257
   9 C      8.108243   11.384966    9.572843
  10 C     10.589629   13.776151    8.331731
  11 C      7.513915   11.755058    8.342398
  12 C     11.057059   12.822526    8.762032

Unit cell:
           periodic     x           y           z      points  spacing
  1. axis:    no    24.000000    0.000000    0.000000   120     0.2000
  2. axis:    no     0.000000   24.000000    0.000000   120     0.2000
  3. axis:    no     0.000000    0.000000   18.000000    88     0.2045

  Lengths:  24.000000  24.000000  18.000000
  Angles:   90.000000  90.000000  90.000000

Effective grid spacing dv^(1/3) = 0.2015

                     log10-error:    total        iterations:
           time      wfs    density  energy       fermi  poisson
iter:   1  09:22:03          +inf   -57.956941    4      5      
iter:   2  09:22:03         -1.66   -57.934672    3      2      
iter:   3  09:22:04         -1.78   -57.913110    2      2      
iter:   4  09:22:04         -1.92   -57.903610    3      2      
iter:   5  09:22:05         -1.88   -57.899562    3      2      
iter:   6  09:22:05         -2.10   -57.893420    3      2      
iter:   7  09:22:06         -2.24   -57.885004    3      2      
iter:   8  09:22:06         -2.36   -57.882921    3      2      
iter:   9  09:22:07         -2.52   -57.881864    3      2      
iter:  10  09:22:07         -2.64   -57.881805    2      1      
iter:  11  09:22:08         -2.74   -57.881877    2      1      
iter:  12  09:22:08         -2.91   -57.880406    2      1      
iter:  13  09:22:09         -2.98   -57.880183    2      1      
iter:  14  09:22:09         -3.07   -57.879023    3      1      
iter:  15  09:22:10         -3.25   -57.881528    2      1      
iter:  16  09:22:10         -3.17   -57.879902    2      1      
iter:  17  09:22:10         -3.55   -57.880567    2      1      
iter:  18  09:22:11         -3.61   -57.881036    2      1      
iter:  19  09:22:11         -3.56   -57.880527    2      1      
iter:  20  09:22:12         -3.94   -57.880707    2      1      
iter:  21  09:22:12         -4.05   -57.880635    2      1      

Converged after 21 iterations.

Dipole moment: (0.180875, 0.670519, 0.111064) |e|*Ang

Energy contributions relative to reference atoms: (reference = -13359.165501)

Kinetic:        +21.608730
Potential:      -30.660872
External:        +0.000000
XC:             -49.698943
Entropy (-ST):   -0.713527
Local:           +1.227214
--------------------------
Free energy:    -58.237398
Extrapolated:   -57.880635

Fermi level: -5.78995

 Band  Eigenvalues  Occupancy
    0    -21.21232    2.00000
    1    -21.00834    2.00000
    2    -20.09465    2.00000
    3    -19.28961    2.00000
    4    -15.05869    2.00000
    5    -14.79484    2.00000
    6    -14.65136    2.00000
    7    -14.11781    2.00000
    8    -13.50493    2.00000
    9    -11.23613    2.00000
   10    -11.03224    2.00000
   11    -10.06227    2.00000
   12     -9.48033    2.00000
   13     -9.26500    2.00000
   14     -8.99325    2.00000
   15     -8.61230    2.00000
   16     -8.37430    2.00000
   17     -8.36439    2.00000
   18     -7.91484    2.00000
   19     -7.47163    2.00000
   20     -7.03535    1.99999
   21     -6.94743    1.99998
   22     -6.63147    1.99956
   23     -6.36208    1.99347
   24     -5.84675    1.27659
   25     -5.79202    1.01034
   26     -5.69538    0.55948
   27     -5.67486    0.48062
   28     -5.64324    0.37476
   29     -5.57692    0.21238
   30     -5.41807    0.04738
   31     -5.39555    0.03800
   32     -5.23004    0.00737
   33     -4.76200    0.00007
   34     -4.30878    0.00000
   35     -3.65669    0.00000
   36     -2.99879    0.00000
   37     -2.61325    0.00000
   38     -1.92372    0.00000
   39     -1.73239    0.00000
   40     -1.10247    0.00000
   41      0.02417    0.00000
   42      1.12227    0.00000
   43      1.42311    0.00000
   44      1.55850    0.00000
   45      2.77077    0.00000
   46      2.81627    0.00000
   47      3.54848    0.00000
   48      5.77053    0.00000
   49      6.12926    0.00000
   50      7.47870    0.00000
   51      8.26856    0.00000
   52      8.61934    0.00000
   53      8.65635    0.00000
   54      8.69617    0.00000
   55      8.99895    0.00000
   56      9.16431    0.00000
   57      9.21715    0.00000
   58      9.31009    0.00000
   59      9.58503    0.00000
   60      9.69355    0.00000
   61      9.85539    0.00000
   62     10.04188    0.00000
   63     10.10599    0.00000
   64     10.14819    0.00000
   65     10.31832    0.00000
   66     10.49187    0.00000
   67     10.74946    0.00000
   68     10.87583    0.00000
   69     10.99470    0.00000
   70     11.03983    0.00000
   71     11.35352    0.00000
   72     11.63067    0.00000
   73     11.67778    0.00000
   74     11.81129    0.00000
   75     12.21840    0.00000


Forces in eV/Ang:
  0 C     4.32363    0.89944   -1.93250
  1 C    -0.67157   -1.01960    0.48078
  2 C   -10.41184    4.62857   -0.46984
  3 C     0.91519   -0.80156   -0.38665
  4 C    -1.81383    0.53495    2.65618
  5 C    -3.44108   -2.70502   -0.93909
  6 C     0.51148   -4.46615   -4.37033
  7 C    -2.85661   -3.31000   -0.98144
  8 C    10.38084   -0.25115    0.60265
  9 C    -0.41362    0.25566   -3.66994
 10 C    -7.35194   19.05533   -1.97140
 11 C     3.81303    2.25785    4.49368
 12 C     7.03135  -15.12941    6.45795

System changes: positions 

Initializing position-dependent things.

Density initialized from wave functions
                .----------------------------------------------------------.  
               /|                                                          |  
              / |                                                          |  
             /  |                                                          |  
            /   |                                                          |  
           /    |                                                          |  
          /     |                                                          |  
         /      |                                                          |  
        /       |                                                          |  
       /        |                                                          |  
      /         |                                                          |  
     /          |                                                          |  
    /           |                                                          |  
   /            |                                                          |  
  /             |                                                          |  
 *              |                                                          |  
 |              |                   C                                      |  
 |              |                                                          |  
 |              |           C C     C                                      |  
 |              |          C    C      C  C    C                           |  
 |              |                                                          |  
 |              |                C  C   C                                  |  
 |              .----------------------------------------------------------.  
 |             /                                                          /   
 |            /                                                          /    
 |           /                                                          /     
 |          /                                                          /      
 |         /                                                          /       
 |        /                                                          /        
 |       /                                                          /         
 |      /                                                          /          
 |     /                                                          /           
 |    /                                                          /            
 |   /                                                          /             
 |  /                                                          /              
 | /                                                          /               
 |/                                                          /                
 *----------------------------------------------------------*                 

Positions:
   0 C     12.852370    9.585851    9.546457
   1 C     15.595685   12.762803    8.588984
   2 C     11.068533    8.031343    9.116912
   3 C      9.988431    9.866421    9.538722
   4 C     13.640484    8.982327    8.528976
   5 C     14.148842   10.634929    9.611060
   6 C     10.455522   15.126387    9.569915
   7 C      8.339369   12.992002    8.799959
   8 C     12.279401    7.694020    9.277203
   9 C      8.106793   11.385874    9.554779
  10 C     10.585286   13.807342    8.356394
  11 C      7.533230   11.767099    8.364740
  12 C     11.059546   12.814586    8.763365

Unit cell:
           periodic     x           y           z      points  spacing
  1. axis:    no    24.000000    0.000000    0.000000   120     0.2000
  2. axis:    no     0.000000   24.000000    0.000000   120     0.2000
  3. axis:    no     0.000000    0.000000   18.000000    88     0.2045

  Lengths:  24.000000  24.000000  18.000000
  Angles:   90.000000  90.000000  90.000000

Effective grid spacing dv^(1/3) = 0.2015

                     log10-error:    total        iterations:
           time      wfs    density  energy       fermi  poisson
iter:   1  09:22:13          +inf   -60.540431    3      5      
iter:   2  09:22:14         -1.29   -60.201405    5      2      
iter:   3  09:22:14         -1.42   -60.169943    3      2      
iter:   4  09:22:15         -1.44   -60.054714    4      2      
iter:   5  09:22:15         -1.82   -60.035884    3      2      
iter:   6  09:22:16         -1.95   -60.029307    3      1      
iter:   7  09:22:16         -2.01   -60.022368    3      2      
iter:   8  09:22:17         -2.15   -60.018935    3      2      
iter:   9  09:22:17         -2.27   -60.018255    3      2      
iter:  10  09:22:18         -2.36   -60.015739    3      2      
iter:  11  09:22:18         -2.43   -60.015111    3      2      
iter:  12  09:22:19         -2.69   -60.011839    2      1      
iter:  13  09:22:19         -2.86   -60.013949    2      1      
iter:  14  09:22:20         -2.96   -60.014446    2      1      
iter:  15  09:22:20         -3.04   -60.014239    2      1      
iter:  16  09:22:21         -3.12   -60.012745    2      1      
iter:  17  09:22:21         -3.42   -60.014667    2      1      
iter:  18  09:22:21         -3.55   -60.015854    2      1      
iter:  19  09:22:22         -3.65   -60.015504    2      1      
iter:  20  09:22:22         -3.82   -60.016063    2      1      
iter:  21  09:22:23         -3.82   -60.015595    2      1      
iter:  22  09:22:23         -3.94   -60.015907    2      1      
iter:  23  09:22:24         -4.06   -60.015889    2      1      

Converged after 23 iterations.

Dipole moment: (0.106632, 0.637151, 0.057932) |e|*Ang

Energy contributions relative to reference atoms: (reference = -13359.165501)

Kinetic:        +18.008131
Potential:      -28.635832
External:        +0.000000
XC:             -50.299997
Entropy (-ST):   -0.684245
Local:           +1.253931
--------------------------
Free energy:    -60.358011
Extrapolated:   -60.015889

Fermi level: -5.71601

 Band  Eigenvalues  Occupancy
    0    -21.71893    2.00000
    1    -21.14433    2.00000
    2    -20.13931    2.00000
    3    -19.17267    2.00000
    4    -15.19915    2.00000
    5    -14.84571    2.00000
    6    -14.62975    2.00000
    7    -14.09560    2.00000
    8    -13.68034    2.00000
    9    -11.16179    2.00000
   10    -10.99795    2.00000
   11    -10.19603    2.00000
   12     -9.56386    2.00000
   13     -9.32337    2.00000
   14     -9.04344    2.00000
   15     -8.69632    2.00000
   16     -8.55941    2.00000
   17     -8.41792    2.00000
   18     -7.87550    2.00000
   19     -7.51649    2.00000
   20     -7.04988    2.00000
   21     -6.90271    1.99999
   22     -6.70159    1.99990
   23     -6.37775    1.99733
   24     -5.79324    1.36805
   25     -5.70572    0.94860
   26     -5.62563    0.57656
   27     -5.60641    0.50097
   28     -5.57914    0.40568
   29     -5.44965    0.13031
   30     -5.34479    0.04768
   31     -5.25693    0.02009
   32     -5.11295    0.00480
   33     -4.67098    0.00006
   34     -4.26944    0.00000
   35     -3.54986    0.00000
   36     -2.84124    0.00000
   37     -2.44568    0.00000
   38     -1.79264    0.00000
   39     -1.64120    0.00000
   40     -0.91258    0.00000
   41      0.14501    0.00000
   42      0.78336    0.00000
   43      1.16858    0.00000
   44      1.38430    0.00000
   45      3.05559    0.00000
   46      3.27070    0.00000
   47      4.19492    0.00000
   48      6.08907    0.00000
   49      6.43214    0.00000
   50      7.49525    0.00000
   51      8.26759    0.00000
   52      8.47631    0.00000
   53      8.66642    0.00000
   54      8.71634    0.00000
   55      9.04417    0.00000
   56      9.15429    0.00000
   57      9.21565    0.00000
   58      9.34105    0.00000
   59      9.59778    0.00000
   60      9.67834    0.00000
   61      9.81941    0.00000
   62     10.03572    0.00000
   63     10.12004    0.00000
   64     10.17855    0.00000
   65     10.32241    0.00000
   66     10.51292    0.00000
   67     10.77345    0.00000
   68     10.89197    0.00000
   69     10.98965    0.00000
   70     11.15655    0.00000
   71     11.40338    0.00000
   72     11.66202    0.00000
   73     11.76055    0.00000
   74     12.05150    0.00000
   75     12.25576    0.00000


Forces in eV/Ang:
  0 C     3.92221    1.43079   -1.27793
  1 C    -0.63752   -0.93904    0.45033
  2 C    -5.06082    3.39150    0.28989
  3 C     1.09656   -1.18803   -0.39437
  4 C    -1.29771    0.14807    2.00445
  5 C    -3.51929   -2.79224   -0.91515
  6 C     0.60958   -4.82287   -4.71527
  7 C    -2.82462   -2.95286   -0.96084
  8 C     4.89116    1.12754   -0.11695
  9 C     0.01225   -0.17053   -2.39371
 10 C    -5.75975   16.57030    0.14596
 11 C     3.04074    2.34709    3.17245
 12 C     5.56650  -12.14526    4.68613

System changes: positions 

Initializing position-dependent things.

Density initialized from wave functions
                .----------------------------------------------------------.  
               /|                                                          |  
              / |                                                          |  
             /  |                                                          |  
            /   |                                                          |  
           /    |                                                          |  
          /     |                                                          |  
         /      |                                                          |  
        /       |                                                          |  
       /        |                                                          |  
      /         |                                                          |  
     /          |                                                          |  
    /           |                                                          |  
   /            |                                                          |  
  /             |                                                          |  
 *              |                                                          |  
 |              |                   C                                      |  
 |              |                                                          |  
 |              |           C C     C                                      |  
 |              |          C    C      C  C    C                           |  
 |              |                                                          |  
 |              |                C  C   C                                  |  
 |              .----------------------------------------------------------.  
 |             /                                                          /   
 |            /                                                          /    
 |           /                                                          /     
 |          /                                                          /      
 |         /                                                          /       
 |        /                                                          /        
 |       /                                                          /         
 |      /                                                          /          
 |     /                                                          /           
 |    /                                                          /            
 |   /                                                          /             
 |  /                                                          /              
 | /                                                          /               
 |/                                                          /                
 *----------------------------------------------------------*                 

Positions:
   0 C     12.870191    9.593310    9.541410
   1 C     15.592728   12.758497    8.591060
   2 C     11.063007    8.042777    9.120936
   3 C      9.993805    9.859975    9.536889
   4 C     13.635181    8.982481    8.537503
   5 C     14.131990   10.621459    9.606665
   6 C     10.458891   15.102565    9.546289
   7 C      8.325955   12.978476    8.795300
   8 C     12.284024    7.704295    9.274117
   9 C      8.107602   11.384513    9.545306
  10 C     10.581422   13.838793    8.380805
  11 C      7.546374   11.778181    8.377769
  12 C     11.062489   12.805711    8.763189

Unit cell:
           periodic     x           y           z      points  spacing
  1. axis:    no    24.000000    0.000000    0.000000   120     0.2000
  2. axis:    no     0.000000   24.000000    0.000000   120     0.2000
  3. axis:    no     0.000000    0.000000   18.000000    88     0.2045

  Lengths:  24.000000  24.000000  18.000000
  Angles:   90.000000  90.000000  90.000000

Effective grid spacing dv^(1/3) = 0.2015

                     log10-error:    total        iterations:
           time      wfs    density  energy       fermi  poisson
iter:   1  09:22:25          +inf   -61.627439    3      5      
iter:   2  09:22:25         -1.48   -61.604994    4      2      
iter:   3  09:22:26         -1.38   -61.470368    3      2      
iter:   4  09:22:26         -1.75   -61.438671    3      2      
iter:   5  09:22:27         -2.02   -61.432982    3      2      
iter:   6  09:22:27         -2.10   -61.426588    3      2      
iter:   7  09:22:28         -2.22   -61.422796    2      2      
iter:   8  09:22:28         -2.33   -61.420760    3      2      
iter:   9  09:22:29         -2.49   -61.420930    2      2      
iter:  10  09:22:29         -2.54   -61.419530    3      2      
iter:  11  09:22:30         -2.75   -61.419877    2      2      
iter:  12  09:22:30         -3.00   -61.419453    2      1      
iter:  13  09:22:31         -3.10   -61.419557    2      1      
iter:  14  09:22:31         -3.21   -61.419670    2      1      
iter:  15  09:22:32         -3.34   -61.419724    2      1      
iter:  16  09:22:32         -3.41   -61.420031    2      1      
iter:  17  09:22:33         -3.56   -61.419647    2      1      
iter:  18  09:22:33         -3.74   -61.420242    2      1      
iter:  19  09:22:33         -3.91   -61.420672    2      1      
iter:  20  09:22:34         -3.94   -61.420499    2      1      
iter:  21  09:22:34         -4.19   -61.420527    2      1      

Converged after 21 iterations.

Dipole moment: (0.061518, 0.631439, 0.012520) |e|*Ang

Energy contributions relative to reference atoms: (reference = -13359.165501)

Kinetic:        +18.834285
Potential:      -29.685295
External:        +0.000000
XC:             -51.503706
Entropy (-ST):   -0.662588
Local:           +1.265483
--------------------------
Free energy:    -61.751821
Extrapolated:   -61.420527

Fermi level: -5.66741

 Band  Eigenvalues  Occupancy
    0    -22.06794    2.00000
    1    -21.31809    2.00000
    2    -20.20858    2.00000
    3    -19.19325    2.00000
    4    -15.39290    2.00000
    5    -14.89567    2.00000
    6    -14.63020    2.00000
    7    -14.07812    2.00000
    8    -13.80485    2.00000
    9    -11.14405    2.00000
   10    -10.99342    2.00000
   11    -10.21807    2.00000
   12     -9.64564    2.00000
   13     -9.38925    2.00000
   14     -9.07484    2.00000
   15     -8.77691    2.00000
   16     -8.69146    2.00000
   17     -8.47006    2.00000
   18     -7.89169    2.00000
   19     -7.54848    2.00000
   20     -7.07403    2.00000
   21     -6.91665    1.99999
   22     -6.79074    1.99997
   23     -6.39718    1.99865
   24     -5.75196    1.39923
   25     -5.65739    0.94993
   26     -5.57936    0.58614
   27     -5.55979    0.50846
   28     -5.53534    0.42138
   29     -5.34075    0.07347
   30     -5.29831    0.04868
   31     -5.15246    0.01154
   32     -4.99971    0.00252
   33     -4.60193    0.00005
   34     -4.21027    0.00000
   35     -3.49906    0.00000
   36     -2.73839    0.00000
   37     -2.35211    0.00000
   38     -1.70773    0.00000
   39     -1.50981    0.00000
   40     -0.79545    0.00000
   41      0.18403    0.00000
   42      0.80737    0.00000
   43      0.90973    0.00000
   44      1.48453    0.00000
   45      3.49179    0.00000
   46      3.77944    0.00000
   47      4.69007    0.00000
   48      6.24437    0.00000
   49      6.55867    0.00000
   50      7.48272    0.00000
   51      8.25097    0.00000
   52      8.47272    0.00000
   53      8.66101    0.00000
   54      8.72780    0.00000
   55      9.07340    0.00000
   56      9.18367    0.00000
   57      9.23557    0.00000
   58      9.38290    0.00000
   59      9.60144    0.00000
   60      9.71035    0.00000
   61      9.81284    0.00000
   62     10.01268    0.00000
   63     10.14602    0.00000
   64     10.17477    0.00000
   65     10.33397    0.00000
   66     10.52874    0.00000
   67     10.78185    0.00000
   68     10.87973    0.00000
   69     10.95632    0.00000
   70     11.24406    0.00000
   71     11.43570    0.00000
   72     11.66075    0.00000
   73     11.79925    0.00000
   74     12.11052    0.00000
   75     12.34729    0.00000


Forces in eV/Ang:
  0 C     3.64211    1.86958   -0.79541
  1 C    -0.60063   -0.89168    0.43865
  2 C    -4.56500    3.35782    0.39698
  3 C     1.23203   -1.47385   -0.39755
  4 C    -0.99534   -0.22317    1.49273
  5 C    -3.50341   -2.75778   -0.87034
  6 C     0.67329   -5.05972   -4.93591
  7 C    -2.71201   -2.58077   -0.91876
  8 C     4.23553    1.16200   -0.21520
  9 C     0.27626   -0.49411   -1.48748
 10 C    -4.30962   14.05946    1.85533
 11 C     2.45240    2.30370    2.20864
 12 C     4.23161   -9.28288    3.21472

System changes: positions 

Initializing position-dependent things.

Density initialized from wave functions
                .----------------------------------------------------------.  
               /|                                                          |  
              / |                                                          |  
             /  |                                                          |  
            /   |                                                          |  
           /    |                                                          |  
          /     |                                                          |  
         /      |                                                          |  
        /       |                                                          |  
       /        |                                                          |  
      /         |                                                          |  
     /          |                                                          |  
    /           |                                                          |  
   /            |                                                          |  
  /             |                                                          |  
 *              |                                                          |  
 |              |                   C                                      |  
 |              |                                                          |  
 |              |           C C     C                                      |  
 |              |          C    C      C  C    C                           |  
 |              |                                                          |  
 |              |                C  C   C                                  |  
 |              .----------------------------------------------------------.  
 |             /                                                          /   
 |            /                                                          /    
 |           /                                                          /     
 |          /                                                          /      
 |         /                                                          /       
 |        /                                                          /        
 |       /                                                          /         
 |      /                                                          /          
 |     /                                                          /           
 |    /                                                          /            
 |   /                                                          /             
 |  /                                                          /              
 | /                                                          /               
 |/                                                          /                
 *----------------------------------------------------------*                 

Positions:
   0 C     12.885915    9.603486    9.539533
   1 C     15.590076   12.754566    8.593031
   2 C     11.053850    8.055550    9.124601
   3 C      9.999958    9.851926    9.535062
   4 C     13.631813    8.980173    8.542558
   5 C     14.115695   10.608634    9.602709
   6 C     10.462474   15.077918    9.522055
   7 C      8.313662   12.967740    8.791081
   8 C     12.291187    7.712637    9.271386
   9 C      8.109986   11.381084    9.541783
  10 C     10.580208   13.867198    8.408941
  11 C      7.555508   11.788696    8.384403
  12 C     11.063621   12.801331    8.759993

Unit cell:
           periodic     x           y           z      points  spacing
  1. axis:    no    24.000000    0.000000    0.000000   120     0.2000
  2. axis:    no     0.000000   24.000000    0.000000   120     0.2000
  3. axis:    no     0.000000    0.000000   18.000000    88     0.2045

  Lengths:  24.000000  24.000000  18.000000
  Angles:   90.000000  90.000000  90.000000

Effective grid spacing dv^(1/3) = 0.2015

                     log10-error:    total        iterations:
           time      wfs    density  energy       fermi  poisson
iter:   1  09:22:35          +inf   -62.776156    3      5      
iter:   2  09:22:36         -1.59   -62.683797    4      2      
iter:   3  09:22:36         -1.74   -62.672935    3      2      
iter:   4  09:22:37         -1.65   -62.631224    4      2      
iter:   5  09:22:37         -2.06   -62.628818    3      2      
iter:   6  09:22:38         -2.08   -62.616776    3      2      
iter:   7  09:22:38         -2.25   -62.616010    3      2      
iter:   8  09:22:39         -2.40   -62.613842    3      2      
iter:   9  09:22:39         -2.57   -62.613548    3      2      
iter:  10  09:22:40         -2.67   -62.611766    3      1      
iter:  11  09:22:40         -2.64   -62.611044    2      1      
iter:  12  09:22:41         -2.90   -62.611415    3      1      
iter:  13  09:22:41         -2.99   -62.611687    2      1      
iter:  14  09:22:42         -3.22   -62.613886    2      1      
iter:  15  09:22:42         -3.06   -62.614023    2      1      
iter:  16  09:22:43         -3.38   -62.613841    2      1      
iter:  17  09:22:43         -3.54   -62.613811    2      1      
iter:  18  09:22:43         -3.50   -62.614161    2      1      
iter:  19  09:22:44         -3.87   -62.614433    2      1      
iter:  20  09:22:44         -3.74   -62.614334    2      1      
iter:  21  09:22:45         -3.91   -62.614351    2      1      
iter:  22  09:22:45         -4.05   -62.614275    2      1      

Converged after 22 iterations.

Dipole moment: (0.033272, 0.614582, -0.032221) |e|*Ang

Energy contributions relative to reference atoms: (reference = -13359.165501)

Kinetic:        +19.684371
Potential:      -30.700862
External:        +0.000000
XC:             -52.544336
Entropy (-ST):   -0.645738
Local:           +1.269420
--------------------------
Free energy:    -62.937144
Extrapolated:   -62.614275

Fermi level: -5.62993

 Band  Eigenvalues  Occupancy
    0    -22.28938    2.00000
    1    -21.46709    2.00000
    2    -20.34190    2.00000
    3    -19.16892    2.00000
    4    -15.63779    2.00000
    5    -14.96438    2.00000
    6    -14.63044    2.00000
    7    -14.06270    2.00000
    8    -13.88454    2.00000
    9    -11.14220    2.00000
   10    -10.99872    2.00000
   11    -10.24609    2.00000
   12     -9.70581    2.00000
   13     -9.42136    2.00000
   14     -9.08308    2.00000
   15     -8.85995    2.00000
   16     -8.78509    2.00000
   17     -8.53100    2.00000
   18     -7.91436    2.00000
   19     -7.57946    2.00000
   20     -7.09599    2.00000
   21     -7.00611    2.00000
   22     -6.81056    1.99999
   23     -6.41684    1.99924
   24     -5.72240    1.43201
   25     -5.61575    0.92921
   26     -5.54545    0.60104
   27     -5.52463    0.51731
   28     -5.49930    0.42622
   29     -5.26884    0.05263
   30     -5.22233    0.03338
   31     -5.07928    0.00809
   32     -4.85477    0.00086
   33     -4.53265    0.00003
   34     -4.15758    0.00000
   35     -3.45338    0.00000
   36     -2.64578    0.00000
   37     -2.27935    0.00000
   38     -1.67785    0.00000
   39     -1.41285    0.00000
   40     -0.73735    0.00000
   41      0.18340    0.00000
   42      0.73084    0.00000
   43      0.81546    0.00000
   44      1.53282    0.00000
   45      4.18322    0.00000
   46      4.29182    0.00000
   47      5.07342    0.00000
   48      6.32929    0.00000
   49      6.59998    0.00000
   50      7.46887    0.00000
   51      8.22929    0.00000
   52      8.43861    0.00000
   53      8.65514    0.00000
   54      8.73456    0.00000
   55      9.07789    0.00000
   56      9.20610    0.00000
   57      9.25608    0.00000
   58      9.43647    0.00000
   59      9.60238    0.00000
   60      9.72894    0.00000
   61      9.81332    0.00000
   62     10.02619    0.00000
   63     10.15994    0.00000
   64     10.17630    0.00000
   65     10.35625    0.00000
   66     10.55589    0.00000
   67     10.78080    0.00000
   68     10.87336    0.00000
   69     10.96242    0.00000
   70     11.27756    0.00000
   71     11.46262    0.00000
   72     11.65890    0.00000
   73     11.82318    0.00000
   74     12.10701    0.00000
   75     12.35493    0.00000


Forces in eV/Ang:
  0 C     3.48669    2.19750   -0.45472
  1 C    -0.57340   -0.84933    0.43600
  2 C    -3.72369    3.23412    0.53730
  3 C     1.37446   -1.78457   -0.43302
  4 C    -0.82057   -0.51292    1.12498
  5 C    -3.46436   -2.68314   -0.80830
  6 C     0.71159   -5.11371   -4.97705
  7 C    -2.57501   -2.19481   -0.86458
  8 C     3.21143    1.29662   -0.34814
  9 C     0.33236   -0.63788   -1.02825
 10 C    -3.42678   12.44047    2.75132
 11 C     2.07981    2.09366    1.71987
 12 C     3.43035   -7.50293    2.32114

System changes: positions 

Initializing position-dependent things.

Density initialized from wave functions
                .----------------------------------------------------------.  
               /|                                                          |  
              / |                                                          |  
             /  |                                                          |  
            /   |                                                          |  
           /    |                                                          |  
          /     |                                                          |  
         /      |                                                          |  
        /       |                                                          |  
       /        |                                                          |  
      /         |                                                          |  
     /          |                                                          |  
    /           |                                                          |  
   /            |                                                          |  
  /             |                                                          |  
 *              |                                                          |  
 |              |                   C                                      |  
 |              |                                                          |  
 |              |           C C     C                                      |  
 |              |          C    C      C  C    C                           |  
 |              |                                                          |  
 |              |                C  C   C                                  |  
 |              .----------------------------------------------------------.  
 |             /                                                          /   
 |            /                                                          /    
 |           /                                                          /     
 |          /                                                          /      
 |         /                                                          /       
 |        /                                                          /        
 |       /                                                          /         
 |      /                                                          /          
 |     /                                                          /           
 |    /                                                          /            
 |   /                                                          /             
 |  /                                                          /              
 | /                                                          /               
 |/                                                          /                
 *----------------------------------------------------------*                 

Positions:
   0 C     12.901543    9.615861    9.539396
   1 C     15.587512   12.750774    8.595091
   2 C     11.045383    8.069079    9.128631
   3 C     10.007308    9.841460    9.532813
   4 C     13.628952    8.976005    8.545740
   5 C     14.099394   10.596251    9.599180
   6 C     10.466260   15.052995    9.497695
   7 C      8.302175   12.959548    8.787216
   8 C     12.296172    7.720793    9.268325
   9 C      8.111952   11.377228    9.539575
  10 C     10.579768   13.894929    8.437764
  11 C      7.563159   11.797327    8.389694
  12 C     11.064468   12.798533    8.755789

Unit cell:
           periodic     x           y           z      points  spacing
  1. axis:    no    24.000000    0.000000    0.000000   120     0.2000
  2. axis:    no     0.000000   24.000000    0.000000   120     0.2000
  3. axis:    no     0.000000    0.000000   18.000000    88     0.2045

  Lengths:  24.000000  24.000000  18.000000
  Angles:   90.000000  90.000000  90.000000

Effective grid spacing dv^(1/3) = 0.2015

                     log10-error:    total        iterations:
           time      wfs    density  energy       fermi  poisson
iter:   1  09:22:46          +inf   -63.834743    4      5      
iter:   2  09:22:47         -1.68   -63.772952    4      2      
iter:   3  09:22:47         -1.75   -63.760945    4      2      
iter:   4  09:22:48         -1.70   -63.723181    3      2      
iter:   5  09:22:48         -2.06   -63.716654    3      2      
iter:   6  09:22:49         -2.09   -63.707267    3      2      
iter:   7  09:22:49         -2.26   -63.706570    3      2      
iter:   8  09:22:50         -2.40   -63.703626    3      2      
iter:   9  09:22:50         -2.58   -63.699409    3      1      
iter:  10  09:22:51         -2.68   -63.704330    3      2      
iter:  11  09:22:51         -2.76   -63.702299    2      1      
iter:  12  09:22:52         -2.95   -63.700764    2      1      
iter:  13  09:22:52         -3.15   -63.703186    2      1      
iter:  14  09:22:53         -3.28   -63.703905    2      1      
iter:  15  09:22:53         -3.41   -63.703576    2      1      
iter:  16  09:22:53         -3.44   -63.705247    2      1      
iter:  17  09:22:54         -3.83   -63.704732    2      1      
iter:  18  09:22:54         -3.92   -63.704518    2      1      
iter:  19  09:22:55         -3.99   -63.704405    2      1      
iter:  20  09:22:55         -4.24   -63.704536    2      1      

Converged after 20 iterations.

Dipole moment: (0.013985, 0.587339, -0.078143) |e|*Ang

Energy contributions relative to reference atoms: (reference = -13359.165501)

Kinetic:        +21.327128
Potential:      -32.310998
External:        +0.000000
XC:             -53.679462
Entropy (-ST):   -0.631141
Local:           +1.274366
--------------------------
Free energy:    -64.020106
Extrapolated:   -63.704536

Fermi level: -5.60244

 Band  Eigenvalues  Occupancy
    0    -22.46835    2.00000
    1    -21.61075    2.00000
    2    -20.50709    2.00000
    3    -19.14694    2.00000
    4    -15.91184    2.00000
    5    -15.04718    2.00000
    6    -14.64107    2.00000
    7    -14.05437    2.00000
    8    -13.96359    2.00000
    9    -11.14529    2.00000
   10    -11.00803    2.00000
   11    -10.26738    2.00000
   12     -9.76453    2.00000
   13     -9.43674    2.00000
   14     -9.08605    2.00000
   15     -8.95037    2.00000
   16     -8.86603    2.00000
   17     -8.56398    2.00000
   18     -7.94806    2.00000
   19     -7.61005    2.00000
   20     -7.15640    2.00000
   21     -7.10479    2.00000
   22     -6.80353    1.99999
   23     -6.44436    1.99956
   24     -5.70498    1.47207
   25     -5.58157    0.89606
   26     -5.52235    0.61968
   27     -5.49770    0.51945
   28     -5.47087    0.42309
   29     -5.23312    0.04858
   30     -5.11411    0.01503
   31     -5.02627    0.00627
   32     -4.68130    0.00020
   33     -4.45680    0.00002
   34     -4.10548    0.00000
   35     -3.42262    0.00000
   36     -2.57077    0.00000
   37     -2.23864    0.00000
   38     -1.65839    0.00000
   39     -1.32340    0.00000
   40     -0.69051    0.00000
   41      0.16549    0.00000
   42      0.62946    0.00000
   43      0.81565    0.00000
   44      1.59001    0.00000
   45      4.79914    0.00000
   46      5.05693    0.00000
   47      5.37308    0.00000
   48      6.40663    0.00000
   49      6.62780    0.00000
   50      7.45603    0.00000
   51      8.20061    0.00000
   52      8.41054    0.00000
   53      8.64903    0.00000
   54      8.73678    0.00000
   55      9.07753    0.00000
   56      9.21224    0.00000
   57      9.29057    0.00000
   58      9.47898    0.00000
   59      9.61235    0.00000
   60      9.73378    0.00000
   61      9.81332    0.00000
   62     10.06151    0.00000
   63     10.16560    0.00000
   64     10.19680    0.00000
   65     10.38764    0.00000
   66     10.60078    0.00000
   67     10.77706    0.00000
   68     10.88237    0.00000
   69     11.01665    0.00000
   70     11.27302    0.00000
   71     11.48830    0.00000
   72     11.65598    0.00000
   73     11.83845    0.00000
   74     12.09370    0.00000
   75     12.34748    0.00000


Forces in eV/Ang:
  0 C     3.37809    2.45295   -0.21525
  1 C    -0.55896   -0.82021    0.43954
  2 C    -3.13211    3.20556    0.64748
  3 C     1.56152   -2.14215   -0.50472
  4 C    -0.73750   -0.75709    0.85150
  5 C    -3.32710   -2.50111   -0.75102
  6 C     0.70540   -4.88176   -4.71447
  7 C    -2.38410   -1.78412   -0.78901
  8 C     2.41433    1.35582   -0.44489
  9 C     0.33105   -0.73672   -0.67249
 10 C    -2.65132   10.72019    3.17616
 11 C     1.73152    1.80324    1.31617
 12 C     2.75123   -5.94942    1.63447

System changes: positions 

Initializing position-dependent things.

Density initialized from wave functions
                .----------------------------------------------------------.  
               /|                                                          |  
              / |                                                          |  
             /  |                                                          |  
            /   |                                                          |  
           /    |                                                          |  
          /     |                                                          |  
         /      |                                                          |  
        /       |                                                          |  
       /        |                                                          |  
      /         |                                                          |  
     /          |                                                          |  
    /           |                                                          |  
   /            |                                                          |  
  /             |                                                          |  
 *              |                                                          |  
 |              |                   C                                      |  
 |              |                                                          |  
 |              |           CC      C                                      |  
 |              |          C    C      C  C    C                           |  
 |              |                                                          |  
 |              |                C  C   C                                  |  
 |              .----------------------------------------------------------.  
 |             /                                                          /   
 |            /                                                          /    
 |           /                                                          /     
 |          /                                                          /      
 |         /                                                          /       
 |        /                                                          /        
 |       /                                                          /         
 |      /                                                          /          
 |     /                                                          /           
 |    /                                                          /            
 |   /                                                          /             
 |  /                                                          /              
 | /                                                          /               
 |/                                                          /                
 *----------------------------------------------------------*                 

Positions:
   0 C     12.919557    9.631621    9.540143
   1 C     15.584536   12.746468    8.597587
   2 C     11.035861    8.085899    9.133597
   3 C     10.017583    9.826263    9.529364
   4 C     13.625379    8.969691    8.548238
   5 C     14.082042   10.583922    9.595529
   6 C     10.470270   15.027737    9.473474
   7 C      8.290612   12.953305    8.783453
   8 C     12.299853    7.729599    9.264604
   9 C      8.113408   11.372615    9.538081
  10 C     10.580071   13.922213    8.467014
  11 C      7.570101   11.804371    8.394384
  12 C     11.065416   12.796692    8.751170

Unit cell:
           periodic     x           y           z      points  spacing
  1. axis:    no    24.000000    0.000000    0.000000   120     0.2000
  2. axis:    no     0.000000   24.000000    0.000000   120     0.2000
  3. axis:    no     0.000000    0.000000   18.000000    88     0.2045

  Lengths:  24.000000  24.000000  18.000000
  Angles:   90.000000  90.000000  90.000000

Effective grid spacing dv^(1/3) = 0.2015

                     log10-error:    total        iterations:
           time      wfs    density  energy       fermi  poisson
iter:   1  09:22:56          +inf   -64.846675    4      5      
iter:   2  09:22:57         -1.72   -64.800241    4      2      
iter:   3  09:22:57         -1.84   -64.770409    4      2      
iter:   4  09:22:58         -1.82   -64.756150    3      1      
iter:   5  09:22:58         -2.06   -64.752126    3      2      
iter:   6  09:22:59         -2.00   -64.743430    3      2      
iter:   7  09:22:59         -2.32   -64.741073    2      2      
iter:   8  09:23:00         -2.37   -64.739202    3      2      
iter:   9  09:23:00         -2.66   -64.739820    2      2      
iter:  10  09:23:01         -2.78   -64.739863    2      2      
iter:  11  09:23:01         -3.02   -64.738959    2      1      
iter:  12  09:23:02         -3.08   -64.739256    2      1      
iter:  13  09:23:02         -3.28   -64.740199    3      1      
iter:  14  09:23:03         -3.40   -64.739898    2      1      
iter:  15  09:23:03         -3.46   -64.739874    2      1      
iter:  16  09:23:03         -3.59   -64.739764    2      1      
iter:  17  09:23:04         -3.73   -64.739988    2      1      
iter:  18  09:23:04         -3.78   -64.740400    2      1      
iter:  19  09:23:05         -3.79   -64.740318    2      1      
iter:  20  09:23:05         -3.74   -64.740512    2      1      
iter:  21  09:23:06         -4.26   -64.740234    2      1      

Converged after 21 iterations.

Dipole moment: (0.001504, 0.542193, -0.128604) |e|*Ang

Energy contributions relative to reference atoms: (reference = -13359.165501)

Kinetic:        +23.975973
Potential:      -34.697719
External:        +0.000000
XC:             -54.991499
Entropy (-ST):   -0.613854
Local:           +1.279937
--------------------------
Free energy:    -65.047161
Extrapolated:   -64.740234

Fermi level: -5.58457

 Band  Eigenvalues  Occupancy
    0    -22.62287    2.00000
    1    -21.76580    2.00000
    2    -20.69476    2.00000
    3    -19.12697    2.00000
    4    -16.19597    2.00000
    5    -15.15817    2.00000
    6    -14.66704    2.00000
    7    -14.08059    2.00000
    8    -14.02834    2.00000
    9    -11.15148    2.00000
   10    -11.01651    2.00000
   11    -10.28998    2.00000
   12     -9.82374    2.00000
   13     -9.45044    2.00000
   14     -9.09825    2.00000
   15     -9.05153    2.00000
   16     -8.93593    2.00000
   17     -8.53680    2.00000
   18     -7.99320    2.00000
   19     -7.64141    2.00000
   20     -7.29331    2.00000
   21     -7.14049    2.00000
   22     -6.79744    1.99999
   23     -6.47773    1.99974
   24     -5.70416    1.53557
   25     -5.55425    0.84955
   26     -5.51041    0.64531
   27     -5.47749    0.51049
   28     -5.44726    0.40422
   29     -5.20533    0.04409
   30     -5.01476    0.00668
   31     -4.97098    0.00432
   32     -4.49318    0.00004
   33     -4.35850    0.00001
   34     -4.05268    0.00000
   35     -3.40471    0.00000
   36     -2.50121    0.00000
   37     -2.20255    0.00000
   38     -1.64195    0.00000
   39     -1.21460    0.00000
   40     -0.65042    0.00000
   41      0.15020    0.00000
   42      0.56769    0.00000
   43      0.84194    0.00000
   44      1.65950    0.00000
   45      5.29989    0.00000
   46      5.60082    0.00000
   47      6.02692    0.00000
   48      6.54081    0.00000
   49      6.65992    0.00000
   50      7.47575    0.00000
   51      8.16458    0.00000
   52      8.38141    0.00000
   53      8.64382    0.00000
   54      8.73375    0.00000
   55      9.07310    0.00000
   56      9.20578    0.00000
   57      9.34490    0.00000
   58      9.48986    0.00000
   59      9.64283    0.00000
   60      9.74388    0.00000
   61      9.80953    0.00000
   62     10.07463    0.00000
   63     10.21031    0.00000
   64     10.22595    0.00000
   65     10.42631    0.00000
   66     10.66221    0.00000
   67     10.77343    0.00000
   68     10.91418    0.00000
   69     11.19650    0.00000
   70     11.24479    0.00000
   71     11.52440    0.00000
   72     11.65333    0.00000
   73     11.85002    0.00000
   74     12.06800    0.00000
   75     12.33351    0.00000


Forces in eV/Ang:
  0 C     3.25118    2.61757   -0.05056
  1 C    -0.55308   -0.80252    0.44074
  2 C    -2.69448    3.26648    0.75699
  3 C     1.80961   -2.59439   -0.58433
  4 C    -0.74014   -1.00882    0.62534
  5 C    -3.06962   -2.20302   -0.65358
  6 C     0.63901   -4.19426   -4.06417
  7 C    -2.17267   -1.33262   -0.73712
  8 C     1.65193    1.38302   -0.53229
  9 C     0.26857   -0.81643   -0.35204
 10 C    -1.92461    8.66135    3.07598
 11 C     1.43912    1.51394    0.97197
 12 C     2.13394   -4.50907    1.08022

System changes: positions 

Initializing position-dependent things.

Density initialized from wave functions
                .----------------------------------------------------------.  
               /|                                                          |  
              / |                                                          |  
             /  |                                                          |  
            /   |                                                          |  
           /    |                                                          |  
          /     |                                                          |  
         /      |                                                          |  
        /       |                                                          |  
       /        |                                                          |  
      /         |                                                          |  
     /          |                                                          |  
    /           |                                                          |  
   /            |                                                          |  
  /             |                                                          |  
 *              |                                                          |  
 |              |                   C                                      |  
 |              |                                                          |  
 |              |           CC      C                                      |  
 |              |          C    C      C  C    C                           |  
 |              |                                                          |  
 |              |                C  C   C                                  |  
 |              .----------------------------------------------------------.  
 |             /                                                          /   
 |            /                                                          /    
 |           /                                                          /     
 |          /                                                          /      
 |         /                                                          /       
 |        /                                                          /        
 |       /                                                          /         
 |      /                                                          /          
 |     /                                                          /           
 |    /                                                          /            
 |   /                                                          /             
 |  /                                                          /              
 | /                                                          /               
 |/                                                          /                
 *----------------------------------------------------------*                 

Positions:
   0 C     12.943133    9.653031    9.541264
   1 C     15.580436   12.740632    8.600975
   2 C     11.022886    8.110352    9.140781
   3 C     10.033811    9.801757    9.523946
   4 C     13.619475    8.959585    8.550840
   5 C     14.061657   10.570614    9.591583
   6 C     10.474545   15.003037    9.449501
   7 C      8.276803   12.948377    8.778639
   8 C     12.301681    7.740890    9.259334
   9 C      8.114143   11.366232    9.537386
  10 C     10.581094   13.949272    8.496454
  11 C      7.578135   11.811580    8.399388
  12 C     11.066995   12.794870    8.746284

Unit cell:
           periodic     x           y           z      points  spacing
  1. axis:    no    24.000000    0.000000    0.000000   120     0.2000
  2. axis:    no     0.000000   24.000000    0.000000   120     0.2000
  3. axis:    no     0.000000    0.000000   18.000000    88     0.2045

  Lengths:  24.000000  24.000000  18.000000
  Angles:   90.000000  90.000000  90.000000

Effective grid spacing dv^(1/3) = 0.2015

                     log10-error:    total        iterations:
           time      wfs    density  energy       fermi  poisson
iter:   1  09:23:07          +inf   -65.866116    4      5      
iter:   2  09:23:07         -1.75   -65.835043    3      2      
iter:   3  09:23:08         -1.77   -65.823492    4      2      
iter:   4  09:23:08         -1.79   -65.792366    4      2      
iter:   5  09:23:09         -2.04   -65.782458    3      2      
iter:   6  09:23:09         -2.10   -65.777170    3      1      
iter:   7  09:23:10         -2.21   -65.775014    4      2      
iter:   8  09:23:10         -2.29   -65.774422    3      1      
iter:   9  09:23:11         -2.64   -65.774903    3      2      
iter:  10  09:23:11         -2.80   -65.773562    2      1      
iter:  11  09:23:12         -2.74   -65.773437    3      1      
iter:  12  09:23:12         -2.97   -65.775057    3      1      
iter:  13  09:23:13         -2.79   -65.775973    3      1      
iter:  14  09:23:13         -3.28   -65.775269    2      1      
iter:  15  09:23:14         -3.32   -65.774534    2      1      
iter:  16  09:23:14         -3.35   -65.774893    2      1      
iter:  17  09:23:14         -3.70   -65.775258    2      1      
iter:  18  09:23:15         -3.82   -65.775551    2      1      
iter:  19  09:23:15         -3.68   -65.775595    2      1      
iter:  20  09:23:16         -3.44   -65.775402    2      1      
iter:  21  09:23:16         -3.73   -65.775260    2      1      
iter:  22  09:23:17         -3.39   -65.775620    2      1      
iter:  23  09:23:17         -3.93   -65.775436    2      1      
iter:  24  09:23:18         -3.87   -65.775377    2      1      
iter:  25  09:23:18         -4.24   -65.775442    2      1      

Converged after 25 iterations.

Dipole moment: (-0.010203, 0.473696, -0.188390) |e|*Ang

Energy contributions relative to reference atoms: (reference = -13359.165501)

Kinetic:        +28.251649
Potential:      -38.358284
External:        +0.000000
XC:             -56.664691
Entropy (-ST):   -0.581946
Local:           +1.286856
--------------------------
Free energy:    -66.066415
Extrapolated:   -65.775442

Fermi level: -5.57146

 Band  Eigenvalues  Occupancy
    0    -22.78038    2.00000
    1    -21.94574    2.00000
    2    -20.89133    2.00000
    3    -19.11213    2.00000
    4    -16.46888    2.00000
    5    -15.32163    2.00000
    6    -14.71854    2.00000
    7    -14.20204    2.00000
    8    -14.04079    2.00000
    9    -11.16046    2.00000
   10    -11.01412    2.00000
   11    -10.31426    2.00000
   12     -9.88712    2.00000
   13     -9.47971    2.00000
   14     -9.16264    2.00000
   15     -9.14752    2.00000
   16     -8.97501    2.00000
   17     -8.44102    2.00000
   18     -8.05025    2.00000
   19     -7.67426    2.00000
   20     -7.41727    2.00000
   21     -7.18318    2.00000
   22     -6.79896    1.99999
   23     -6.51666    1.99984
   24     -5.72675    1.65068
   25     -5.53042    0.79764
   26     -5.50441    0.67678
   27     -5.45712    0.48340
   28     -5.41519    0.34652
   29     -5.17923    0.03882
   30     -4.96050    0.00443
   31     -4.87522    0.00189
   32     -4.31545    0.00001
   33     -4.20963    0.00000
   34     -3.99378    0.00000
   35     -3.40260    0.00000
   36     -2.41560    0.00000
   37     -2.13211    0.00000
   38     -1.61095    0.00000
   39     -1.03756    0.00000
   40     -0.60312    0.00000
   41      0.12272    0.00000
   42      0.56508    0.00000
   43      0.92439    0.00000
   44      1.76740    0.00000
   45      5.69536    0.00000
   46      5.83689    0.00000
   47      6.64391    0.00000
   48      6.72682    0.00000
   49      7.04732    0.00000
   50      7.63209    0.00000
   51      8.12295    0.00000
   52      8.35440    0.00000
   53      8.63922    0.00000
   54      8.73309    0.00000
   55      9.05692    0.00000
   56      9.19729    0.00000
   57      9.42712    0.00000
   58      9.48783    0.00000
   59      9.67061    0.00000
   60      9.78990    0.00000
   61      9.81753    0.00000
   62     10.07455    0.00000
   63     10.22382    0.00000
   64     10.30047    0.00000
   65     10.48012    0.00000
   66     10.71610    0.00000
   67     10.78193    0.00000
   68     10.95581    0.00000
   69     11.18791    0.00000
   70     11.49008    0.00000
   71     11.63157    0.00000
   72     11.72521    0.00000
   73     11.88600    0.00000
   74     12.02419    0.00000
   75     12.32843    0.00000


Forces in eV/Ang:
  0 C     2.96926    2.61566    0.08430
  1 C    -0.55571   -0.78941    0.43962
  2 C    -2.34953    3.45958    0.88925
  3 C     2.20459   -3.31856   -0.75956
  4 C    -0.85370   -1.32334    0.43385
  5 C    -2.45413   -1.52245   -0.47741
  6 C     0.51470   -2.92342   -2.83933
  7 C    -1.89635   -0.76070   -0.72546
  8 C     0.81690    1.37678   -0.62878
  9 C     0.11824   -0.91028   -0.02585
 10 C    -1.15346    5.98724    2.29889
 11 C     1.15654    1.16362    0.66941
 12 C     1.53368   -3.07771    0.61646

System changes: positions 

Initializing position-dependent things.

Density initialized from wave functions
                .----------------------------------------------------------.  
               /|                                                          |  
              / |                                                          |  
             /  |                                                          |  
            /   |                                                          |  
           /    |                                                          |  
          /     |                                                          |  
         /      |                                                          |  
        /       |                                                          |  
       /        |                                                          |  
      /         |                                                          |  
     /          |                                                          |  
    /           |                                                          |  
   /            |                                                          |  
  /             |                                                          |  
 *              |                                                          |  
 |              |                   C                                      |  
 |              |                                                          |  
 |              |           CC      C                                      |  
 |              |          C    C      C  C    C                           |  
 |              |                                                          |  
 |              |                C  C   C                                  |  
 |              .----------------------------------------------------------.  
 |             /                                                          /   
 |            /                                                          /    
 |           /                                                          /     
 |          /                                                          /      
 |         /                                                          /       
 |        /                                                          /        
 |       /                                                          /         
 |      /                                                          /          
 |     /                                                          /           
 |    /                                                          /            
 |   /                                                          /             
 |  /                                                          /              
 | /                                                          /               
 |/                                                          /                
 *----------------------------------------------------------*                 

Positions:
   0 C     12.968078    9.675914    9.542392
   1 C     15.575575   12.733837    8.604843
   2 C     11.007796    8.140555    9.149684
   3 C     10.055162    9.768794    9.516360
   4 C     13.611118    8.946511    8.553804
   5 C     14.043402   10.560876    9.588325
[...]

Kinetic:        +49.820691
Potential:      -58.605009
External:        +0.000000
XC:             -71.173295
Entropy (-ST):   -0.092713
Local:           +1.394962
--------------------------
Free energy:    -78.655364
Extrapolated:   -78.609008

Fermi level: -6.02912

 Band  Eigenvalues  Occupancy
    0    -22.93954    2.00000
    1    -21.03437    2.00000
    2    -20.28439    2.00000
    3    -20.16644    2.00000
    4    -19.98582    2.00000
    5    -16.94141    2.00000
    6    -16.32192    2.00000
    7    -16.20408    2.00000
    8    -15.98491    2.00000
    9    -13.43808    2.00000
   10    -10.83456    2.00000
   11    -10.73300    2.00000
   12     -9.32822    2.00000
   13     -9.24666    2.00000
   14     -9.10788    2.00000
   15     -9.04845    2.00000
   16     -8.75666    2.00000
   17     -8.68687    2.00000
   18     -8.45893    2.00000
   19     -8.22679    2.00000
   20     -8.07353    2.00000
   21     -7.84581    2.00000
   22     -7.45054    2.00000
   23     -7.29163    1.99999
   24     -7.11948    1.99996
   25     -6.31294    1.88941
   26     -5.70452    0.07495
   27     -5.62821    0.03565
   28     -4.92098    0.00003
   29     -4.50473    0.00000
   30     -4.13773    0.00000
   31     -3.92216    0.00000
   32     -3.49939    0.00000
   33     -2.73293    0.00000
   34     -2.09872    0.00000
   35     -2.01136    0.00000
   36     -1.68655    0.00000
   37     -0.85852    0.00000
   38     -0.56743    0.00000
   39      0.14720    0.00000
   40      0.97180    0.00000
   41      2.54515    0.00000
   42      2.68989    0.00000
   43      3.97168    0.00000
   44      5.68060    0.00000
   45      6.81551    0.00000
   46      7.22833    0.00000
   47      7.42313    0.00000
   48      7.80651    0.00000
   49      7.89056    0.00000
   50      8.14744    0.00000
   51      8.54563    0.00000
   52      8.66518    0.00000
   53      8.73147    0.00000
   54      8.97142    0.00000
   55      9.28821    0.00000
   56      9.37981    0.00000
   57      9.51151    0.00000
   58      9.86942    0.00000
   59      9.89295    0.00000
   60     10.16970    0.00000
   61     10.25760    0.00000
   62     10.41763    0.00000
   63     10.63270    0.00000
   64     10.76781    0.00000
   65     10.87547    0.00000
   66     11.12251    0.00000
   67     11.22946    0.00000
   68     11.38807    0.00000
   69     11.56508    0.00000
   70     11.96580    0.00000
   71     12.08232    0.00000
   72     12.27077    0.00000
   73     12.47502    0.00000
   74     12.83380    0.00000
   75     12.99847    0.00000


Forces in eV/Ang:
  0 C     1.94493   -2.30284   -3.15977
  1 C    -4.66911   -4.96659    2.58875
  2 C     5.39210  -11.12690   -0.33584
  3 C    -9.44456   11.93169    0.72533
  4 C     9.08136    5.72096    0.81106
  5 C     3.25747    2.56920   -2.30036
  6 C    -0.01227    0.05736    0.06006
  7 C    -0.06397   -1.47799   -0.12557
  8 C    -5.97508   -1.36446    1.51122
  9 C    -0.15853    0.24333   -0.60360
 10 C     2.04299   -5.04538    0.74464
 11 C     0.49509    0.81801    0.94192
 12 C    -1.99318    4.97880   -0.81995

System changes: positions 

Initializing position-dependent things.

Density initialized from wave functions
                .----------------------------------------------------------.  
               /|                                                          |  
              / |                                                          |  
             /  |                                                          |  
            /   |                                                          |  
           /    |                                                          |  
          /     |                                                          |  
         /      |                                                          |  
        /       |                                                          |  
       /        |                                                          |  
      /         |                                                          |  
     /          |                                                          |  
    /           |                                                          |  
   /            |                                                          |  
  /             |                                                          |  
 *              |                                                          |  
 |              |                   C                                      |  
 |              |                                                          |  
 |              |           C       CC                                     |  
 |              |           C            C C  C                            |  
 |              |               CC                                         |  
 |              |                   C  C                                   |  
 |              .----------------------------------------------------------.  
 |             /                                                          /   
 |            /                                                          /    
 |           /                                                          /     
 |          /                                                          /      
 |         /                                                          /       
 |        /                                                          /        
 |       /                                                          /         
 |      /                                                          /          
 |     /                                                          /           
 |    /                                                          /            
 |   /                                                          /             
 |  /                                                          /              
 | /                                                          /               
 |/                                                          /                
 *----------------------------------------------------------*                 

Positions:
   0 C     13.599864    9.871683    9.363707
   1 C     15.130430   12.170825    8.908263
   2 C     10.883506    8.415840    9.313946
   3 C     10.217801    9.362197    9.342353
   4 C     13.329603    8.421153    8.763135
   5 C     14.141452   11.109173    9.431880
   6 C     10.535270   15.043987    9.390367
   7 C      7.775071   13.158530    8.568099
   8 C     12.149134    8.406255    9.057985
   9 C      8.137497   10.968978    9.589753
  10 C     10.680694   14.017691    8.544649
  11 C      7.844895   11.803279    8.557879
  12 C     11.232292   12.684412    8.779748

Unit cell:
           periodic     x           y           z      points  spacing
  1. axis:    no    24.000000    0.000000    0.000000   120     0.2000
  2. axis:    no     0.000000   24.000000    0.000000   120     0.2000
  3. axis:    no     0.000000    0.000000   18.000000    88     0.2045

  Lengths:  24.000000  24.000000  18.000000
  Angles:   90.000000  90.000000  90.000000

Effective grid spacing dv^(1/3) = 0.2015

                     log10-error:    total        iterations:
           time      wfs    density  energy       fermi  poisson
iter:   1  09:27:33          +inf   -79.222615    4      5      
iter:   2  09:27:34         -1.76   -79.139995    3      2      
iter:   3  09:27:34         -1.93   -79.065770    3      2      
iter:   4  09:27:35         -2.23   -79.059695    2      1      
iter:   5  09:27:35         -2.31   -79.041599    3      2      
iter:   6  09:27:36         -2.49   -79.040818    2      2      
iter:   7  09:27:36         -2.49   -79.042872    2      2      
iter:   8  09:27:37         -2.73   -79.036947    2      1      
iter:   9  09:27:37         -2.55   -79.037516    2      2      
iter:  10  09:27:37         -3.08   -79.038825    2      1      
iter:  11  09:27:38         -3.24   -79.039124    2      1      
iter:  12  09:27:38         -3.39   -79.039099    2      1      
iter:  13  09:27:39         -3.47   -79.038944    2      1      
iter:  14  09:27:39         -3.57   -79.038877    2      1      
iter:  15  09:27:40         -3.69   -79.039191    2      1      
iter:  16  09:27:40         -3.76   -79.039114    2      1      
iter:  17  09:27:41         -3.90   -79.038961    2      1      
iter:  18  09:27:41         -4.03   -79.038921    2      1      

Converged after 18 iterations.

Dipole moment: (0.672336, -0.521192, -0.157825) |e|*Ang

Energy contributions relative to reference atoms: (reference = -13359.165501)

Kinetic:        +48.518672
Potential:      -57.803690
External:        +0.000000
XC:             -71.105565
Entropy (-ST):   -0.080008
Local:           +1.391665
--------------------------
Free energy:    -79.078925
Extrapolated:   -79.038921

Fermi level: -6.01238

 Band  Eigenvalues  Occupancy
    0    -23.00435    2.00000
    1    -21.15142    2.00000
    2    -20.22432    2.00000
    3    -20.13499    2.00000
    4    -20.06600    2.00000
    5    -17.19396    2.00000
    6    -16.30389    2.00000
    7    -16.25966    2.00000
    8    -15.98353    2.00000
    9    -13.44627    2.00000
   10    -10.90121    2.00000
   11    -10.81069    2.00000
   12     -9.30149    2.00000
   13     -9.16330    2.00000
   14     -9.15156    2.00000
   15     -9.06995    2.00000
   16     -8.86471    2.00000
   17     -8.63135    2.00000
   18     -8.46340    2.00000
   19     -8.23713    2.00000
   20     -8.02510    2.00000
   21     -7.96697    2.00000
   22     -7.53885    2.00000
   23     -7.33727    2.00000
   24     -7.12252    1.99997
   25     -6.31602    1.90839
   26     -5.67437    0.06585
   27     -5.57843    0.02575
   28     -4.93339    0.00004
   29     -4.51527    0.00000
   30     -4.14195    0.00000
   31     -3.94934    0.00000
   32     -3.51480    0.00000
   33     -2.71232    0.00000
   34     -2.12320    0.00000
   35     -2.05492    0.00000
   36     -1.57945    0.00000
   37     -0.93810    0.00000
   38     -0.61231    0.00000
   39      0.07560    0.00000
   40      0.96266    0.00000
   41      2.42755    0.00000
   42      3.44420    0.00000
   43      3.76539    0.00000
   44      5.62508    0.00000
   45      6.71671    0.00000
   46      7.18357    0.00000
   47      7.38524    0.00000
   48      7.73132    0.00000
   49      7.84548    0.00000
   50      8.09317    0.00000
   51      8.49754    0.00000
   52      8.61857    0.00000
   53      8.73565    0.00000
   54      8.91791    0.00000
   55      9.24582    0.00000
   56      9.33315    0.00000
   57      9.49834    0.00000
   58      9.82919    0.00000
   59      9.89006    0.00000
   60     10.14923    0.00000
   61     10.20535    0.00000
   62     10.38453    0.00000
   63     10.63719    0.00000
   64     10.75808    0.00000
   65     10.85069    0.00000
   66     11.07412    0.00000
   67     11.22279    0.00000
   68     11.35375    0.00000
   69     11.59049    0.00000
   70     11.94707    0.00000
   71     12.11597    0.00000
   72     12.28938    0.00000
   73     12.47430    0.00000
   74     12.81327    0.00000
   75     12.96289    0.00000


Forces in eV/Ang:
  0 C     1.78340   -2.16302   -3.03550
  1 C    -4.33486   -4.54143    2.38052
  2 C     5.18065  -10.88369   -0.04819
  3 C    -9.38074   11.73515    0.42284
  4 C     9.10540    5.82497    0.87770
  5 C     2.82378    1.63533   -2.18012
  6 C     0.05049   -0.38354   -0.30048
  7 C     0.01651   -1.83144   -0.10531
  8 C    -5.54829   -1.21839    1.44406
  9 C    -0.18647    0.40005   -0.74742
 10 C     1.99435   -4.61752    1.15096
 11 C     0.45616    1.02238    0.97812
 12 C    -2.00861    4.99807   -0.84949

System changes: positions 

Initializing position-dependent things.

Density initialized from wave functions
                .----------------------------------------------------------.  
               /|                                                          |  
              / |                                                          |  
             /  |                                                          |  
            /   |                                                          |  
           /    |                                                          |  
          /     |                                                          |  
         /      |                                                          |  
        /       |                                                          |  
       /        |                                                          |  
      /         |                                                          |  
     /          |                                                          |  
    /           |                                                          |  
   /            |                                                          |  
  /             |                                                          |  
 *              |                                                          |  
 |              |                   C                                      |  
 |              |                                                          |  
 |              |           C       CC                                     |  
 |              |           C            C C  C                            |  
 |              |               CC                                         |  
 |              |                   C  C                                   |  
 |              .----------------------------------------------------------.  
 |             /                                                          /   
 |            /                                                          /    
 |           /                                                          /     
 |          /                                                          /      
 |         /                                                          /       
 |        /                                                          /        
 |       /                                                          /         
 |      /                                                          /          
 |     /                                                          /           
 |    /                                                          /            
 |   /                                                          /             
 |  /                                                          /              
 | /                                                          /               
 |/                                                          /                
 *----------------------------------------------------------*                 

Positions:
   0 C     13.629343    9.873369    9.348877
   1 C     15.106488   12.142862    8.923913
   2 C     10.881883    8.411625    9.330568
   3 C     10.206734    9.360918    9.324053
   4 C     13.331105    8.403567    8.776956
   5 C     14.151673   11.132908    9.425236
   6 C     10.538347   15.050694    9.392009
   7 C      7.752819   13.164861    8.558214
   8 C     12.139206    8.441570    9.049072
   9 C      8.136383   10.950316    9.590471
  10 C     10.687174   14.011771    8.538789
  11 C      7.856823   11.804319    8.568172
  12 C     11.240367   12.683581    8.784856

Unit cell:
           periodic     x           y           z      points  spacing
  1. axis:    no    24.000000    0.000000    0.000000   120     0.2000
  2. axis:    no     0.000000   24.000000    0.000000   120     0.2000
  3. axis:    no     0.000000    0.000000   18.000000    88     0.2045

  Lengths:  24.000000  24.000000  18.000000
  Angles:   90.000000  90.000000  90.000000

Effective grid spacing dv^(1/3) = 0.2015

                     log10-error:    total        iterations:
           time      wfs    density  energy       fermi  poisson
iter:   1  09:27:42          +inf   -79.642346    3      5      
iter:   2  09:27:43         -1.79   -79.576786    2      2      
iter:   3  09:27:43         -1.94   -79.511325    3      2      
iter:   4  09:27:44         -2.23   -79.501863    2      2      
iter:   5  09:27:44         -2.32   -79.490356    3      2      
iter:   6  09:27:45         -2.48   -79.488319    3      2      
iter:   7  09:27:45         -2.69   -79.489338    2      1      
iter:   8  09:27:46         -2.78   -79.485665    3      2      
iter:   9  09:27:46         -3.03   -79.486522    2      1      
iter:  10  09:27:47         -3.23   -79.487308    2      1      
iter:  11  09:27:47         -3.32   -79.487564    2      1      
iter:  12  09:27:48         -3.44   -79.487270    2      1      
iter:  13  09:27:48         -3.57   -79.487157    2      1      
iter:  14  09:27:49         -3.66   -79.487152    2      1      
iter:  15  09:27:49         -3.76   -79.487397    2      1      
iter:  16  09:27:49         -3.97   -79.487318    1      1      
iter:  17  09:27:50         -4.07   -79.487274    2      1      

Converged after 17 iterations.

Dipole moment: (0.646189, -0.550782, -0.135604) |e|*Ang

Energy contributions relative to reference atoms: (reference = -13359.165501)

Kinetic:        +46.729124
Potential:      -56.650995
External:        +0.000000
XC:             -70.921636
Entropy (-ST):   -0.067292
Local:           +1.389880
--------------------------
Free energy:    -79.520920
Extrapolated:   -79.487274

Fermi level: -5.99997

 Band  Eigenvalues  Occupancy
    0    -23.06305    2.00000
    1    -21.26381    2.00000
    2    -20.29251    2.00000
    3    -20.16717    2.00000
    4    -19.95805    2.00000
    5    -17.42444    2.00000
    6    -16.28481    2.00000
    7    -16.27602    2.00000
    8    -15.98952    2.00000
    9    -13.43496    2.00000
   10    -10.96200    2.00000
   11    -10.88438    2.00000
   12     -9.36237    2.00000
   13     -9.25097    2.00000
   14     -9.07423    2.00000
   15     -8.98995    2.00000
   16     -8.90593    2.00000
   17     -8.58320    2.00000
   18     -8.47088    2.00000
   19     -8.25119    2.00000
   20     -8.06772    2.00000
   21     -7.97937    2.00000
   22     -7.61915    2.00000
   23     -7.39275    2.00000
   24     -7.13465    1.99998
   25     -6.32615    1.92619
   26     -5.64690    0.05690
   27     -5.52331    0.01687
   28     -4.94621    0.00005
   29     -4.52139    0.00000
   30     -4.15811    0.00000
   31     -3.97331    0.00000
   32     -3.53168    0.00000
   33     -2.66801    0.00000
   34     -2.20234    0.00000
   35     -2.10125    0.00000
   36     -1.47116    0.00000
   37     -1.05675    0.00000
   38     -0.59303    0.00000
   39     -0.01853    0.00000
   40      0.94507    0.00000
   41      2.16632    0.00000
   42      3.13803    0.00000
   43      4.70288    0.00000
   44      5.59568    0.00000
   45      6.66315    0.00000
   46      7.17058    0.00000
   47      7.34007    0.00000
   48      7.63836    0.00000
   49      7.80540    0.00000
   50      8.02141    0.00000
   51      8.44182    0.00000
   52      8.58459    0.00000
   53      8.74074    0.00000
   54      8.87933    0.00000
   55      9.20144    0.00000
   56      9.28009    0.00000
   57      9.47040    0.00000
   58      9.75558    0.00000
   59      9.90805    0.00000
   60     10.09846    0.00000
   61     10.15084    0.00000
   62     10.36129    0.00000
   63     10.63361    0.00000
   64     10.72421    0.00000
   65     10.79959    0.00000
   66     11.07764    0.00000
   67     11.21297    0.00000
   68     11.30399    0.00000
   69     11.61035    0.00000
   70     11.92469    0.00000
   71     12.15932    0.00000
   72     12.26846    0.00000
   73     12.52286    0.00000
   74     12.71496    0.00000
   75     12.95808    0.00000

