
  ___ ___ ___ _ _ _  
 |   |   |_  | | | | 
 | | | | | . | | | | 
 |__ |  _|___|_____|  1.3.1b1
 |___|_|             

User:   mkb@s91n53.grendel.cscaa.dk
Date:   Thu Mar 22 20:47:17 2018
Arch:   x86_64
Pid:    399355
Python: 2.7.13
gpaw:   /home/mkb/gpaw/gpaw
_gpaw:  /home/mkb/gpaw/build/bin.linux-x86_64-2.7/gpaw-python
ase:    /home/mkb/ase/ase (version 3.15.1b1)
numpy:  /comm/swstack/core/python/2.7.13/lib/python2.7/site-packages/numpy (version 1.13.3)
scipy:  /comm/swstack/core/python/2.7.13/lib/python2.7/site-packages/scipy (version 0.19.1)
units:  Angstrom and eV
cores:  36
Extra parameters: {'blacs': True}

Input parameters:
  basis: dzp
  gpts: [120 120  88]
  kpts: [1 1 1]
  maxiter: 99
  mixer: {backend: pulay,
          beta: 0.05,
          method: separate,
          nmaxold: 5,
          weight: 75}
  mode: lcao
  nbands: -50
  occupations: {name: fermi-dirac,
                width: 0.1}
  poissonsolver: {eps: 1e-07,
                  name: fd,
                  nn: 3,
                  relax: GS}
  xc: PBE

System changes: positions, numbers, cell, pbc, initial_charges, initial_magmoms 

Initialize ...

C-setup:
  name: Carbon
  id: 4aa54d4b901d75f77cc0ea3eec22967b
  Z: 6
  valence: 4
  core: 2
  charge: 0.0
  file: /home/esb/DFT/gpaw-setups-0.8.7929/C.PBE.gz
  cutoffs: 0.64(comp), 1.14(filt), 1.14(core), lmax=2
  valence states:
                energy  radius
    2s(2.00)   -13.751   0.635
    2p(2.00)    -5.284   0.635
    *s          13.461   0.635
    *p          21.927   0.635
    *d           0.000   0.635

  LCAO basis set for C:
    Name: dzp
    File: /home/esb/DFT/gpaw-setups-0.8.7929/C.dzp.basis.gz
    Number of radial functions: 5
    Number of spherical harmonics: 13
      l=0, rc=5.5469 Bohr: 2s-sz confined orbital
      l=1, rc=6.6719 Bohr: 2p-sz confined orbital
      l=0, rc=3.0312 Bohr: 2s-dz split-valence wave
      l=1, rc=3.7500 Bohr: 2p-dz split-valence wave
      l=2, rc=6.6719 Bohr: d-type Gaussian polarization

Reference energy: -13359.165501

Spin-paired calculation

Occupation numbers:
  Fermi-Dirac: width=0.1000 eV

Convergence criteria:
  Maximum total energy change: 0.0005 eV / electron
  Maximum integral of absolute density change: 0.0001 electrons
  Maximum integral of absolute eigenstate change: 4e-08 eV^2
  Maximum number of iterations: 99

Symmetries present (total): 1

  ( 1  0  0)
  ( 0  1  0)
  ( 0  0  1)

1 k-point (Gamma)
1 k-point in the irreducible part of the Brillouin zone
       k-points in crystal coordinates                weights
   0:     0.00000000    0.00000000    0.00000000          1/1

Wave functions: LCAO
  Diagonalizer: Serial LAPACK
  Atomic Correction: dense with blas
  Datatype: float
  Eigensolver: None 

LCAO using direct dense diagonalizer 

Densities:
  Coarse grid: 120*120*88 grid
  Fine grid: 240*240*176 grid
  Total Charge: 0.000000 

Density mixing:
  Method: separate
  Backend: pulay
  Linear mixing parameter: 0.05
  Mixing with 5 old densities
  Damping of long wave oscillations: 75 

Hamiltonian:
  XC and Coulomb potentials evaluated on a 240*240*176 grid
  Using the PBE Exchange-Correlation functional
  Interpolation: tri-quintic (5. degree polynomial)
  Poisson solver: Gauss-Seidel solver with 5 multi-grid levels
    Coarsest grid: 15 x 15 x 11 points
    Stencil: 6*3+1=19 point O(h^6) finite-difference Laplacian
    Max iterations: 1000
    Tolerance: 1.000000e-07 

Memory estimate:
  Process memory now: 179.34 MiB
  Calculator: 19.91 MiB
    Density: 9.40 MiB
      Arrays: 6.69 MiB
      Localized functions: 0.21 MiB
      Mixer: 2.50 MiB
    Hamiltonian: 9.40 MiB
      Arrays: 4.38 MiB
      XC: 0.00 MiB
      Poisson: 5.01 MiB
      vbar: 0.02 MiB
    Wavefunctions: 1.11 MiB
      C [qnM]: 0.10 MiB
      S, T [2 x qmm]: 0.44 MiB
      P [aqMi]: 0.00 MiB
      TCI: 0.00 MiB
      BasisFunctions: 0.57 MiB
      Eigensolver: 0.00 MiB

Total number of cores used: 36
Domain decomposition: 3 x 4 x 3

Number of atoms: 13
Number of atomic orbitals: 169
Number of bands in calculation: 76
Bands to converge: occupied states only
Number of valence electrons: 52

... initialized

Initializing position-dependent things.

Density initialized from atomic densities
                .----------------------------------------------------------.  
               /|                                                          |  
              / |                                                          |  
             /  |                                                          |  
            /   |                                                          |  
           /    |                                                          |  
          /     |                                                          |  
         /      |                                                          |  
        /       |                                                          |  
       /        |                                                          |  
      /         |                                                          |  
     /          |                                                          |  
    /           |                                                          |  
   /            |                                                          |  
  /             |                                                          |  
 *              |                                                          |  
 |              |                                                          |  
 |              |                C  C C         C                          |  
 |              |                          C  C                            |  
 |              |                 C                                        |  
 |              |           C  CC C   C                                    |  
 |              |                                                          |  
 |              .----------------------------------------------------------.  
 |             /                                                          /   
 |            /                                                          /    
 |           /                                                          /     
 |          /                                                          /      
 |         /                                                          /       
 |        /                                                          /        
 |       /                                                          /         
 |      /                                                          /          
 |     /                                                          /           
 |    /                                                          /            
 |   /                                                          /             
 |  /                                                          /              
 | /                                                          /               
 |/                                                          /                
 *----------------------------------------------------------*                 

Positions:
   0 C     11.187072   15.101487    8.996260
   1 C      9.766163   10.319862    9.011909
   2 C      8.776594    9.325727    9.029177
   3 C     10.561477   14.415580    8.903398
   4 C     12.576044    9.518039    9.267957
   5 C     10.930727   10.237827    9.100439
   6 C     13.732182   13.096037    9.207891
   7 C     10.221572    9.354702    9.274876
   8 C     11.348236    8.956836    9.361012
   9 C     11.749357   13.762954    9.084828
  10 C     14.913931   12.550798    9.339207
  11 C      9.133314   15.515311    8.761642
  12 C     15.881842   12.830493    9.452305

Unit cell:
           periodic     x           y           z      points  spacing
  1. axis:    no    24.000000    0.000000    0.000000   120     0.2000
  2. axis:    no     0.000000   24.000000    0.000000   120     0.2000
  3. axis:    no     0.000000    0.000000   18.000000    88     0.2045

  Lengths:  24.000000  24.000000  18.000000
  Angles:   90.000000  90.000000  90.000000

Effective grid spacing dv^(1/3) = 0.2015

                     log10-error:    total        iterations:
           time      wfs    density  energy       fermi  poisson
iter:   1  20:47:19          +inf   -54.759865    2      6      
iter:   2  20:47:20         -0.75   -51.965945    3      3      
iter:   3  20:47:21         -0.80   -48.888592    4      3      
iter:   4  20:47:21         -0.80   -48.877399    2      1      
iter:   5  20:47:22         -0.80   -48.396834    3      2      
iter:   6  20:47:23         -0.81   -47.070027    3      2      
iter:   7  20:47:24         -0.86   -47.395743    3      3      
iter:   8  20:47:25         -0.93   -46.355761    3      2      
iter:   9  20:47:26         -1.00   -45.467154    3      3      
iter:  10  20:47:27         -1.14   -45.548271    4      3      
iter:  11  20:47:28         -1.13   -45.101880    4      3      
iter:  12  20:47:29         -1.37   -44.956677    2      2      
iter:  13  20:47:30         -1.51   -44.943358    3      3      
iter:  14  20:47:31         -1.65   -44.911286    2      2      
iter:  15  20:47:32         -1.74   -44.894438    3      3      
iter:  16  20:47:33         -1.89   -44.888328    3      2      
iter:  17  20:47:34         -1.98   -44.873434    3      2      
iter:  18  20:47:35         -2.30   -44.867594    3      2      
iter:  19  20:47:36         -2.37   -44.865103    3      2      
iter:  20  20:47:37         -2.59   -44.864279    3      2      
iter:  21  20:47:37         -2.88   -44.863405    2      1      
iter:  22  20:47:38         -2.94   -44.862974    2      1      
iter:  23  20:47:39         -3.10   -44.867142    2      1      
iter:  24  20:47:40         -3.14   -44.864678    2      1      
iter:  25  20:47:41         -3.33   -44.863837    2      1      
iter:  26  20:47:42         -3.37   -44.862317    2      1      
iter:  27  20:47:42         -3.42   -44.861937    2      1      
iter:  28  20:47:43         -3.45   -44.863122    2      1      
iter:  29  20:47:44         -3.56   -44.863070    2      1      
iter:  30  20:47:45         -3.57   -44.863746    2      1      
iter:  31  20:47:46         -3.73   -44.864872    2      1      
iter:  32  20:47:46         -3.97   -44.864969    2      1      
iter:  33  20:47:47         -4.19   -44.864139    2      1      

Converged after 33 iterations.

Dipole moment: (-0.575817, -0.599631, -0.016678) |e|*Ang

Energy contributions relative to reference atoms: (reference = -13359.165501)

Kinetic:       +241.697044
Potential:     -179.426754
External:        +0.000000
XC:            -108.595697
Entropy (-ST):   -0.305121
Local:           +1.613829
--------------------------
Free energy:    -45.016699
Extrapolated:   -44.864139

Fermi level: -5.39124

 Band  Eigenvalues  Occupancy
    0    -33.86262    2.00000
    1    -26.33567    2.00000
    2    -26.27795    2.00000
    3    -21.90746    2.00000
    4    -21.35055    2.00000
    5    -19.65633    2.00000
    6    -17.80705    2.00000
    7    -17.53346    2.00000
    8    -17.10845    2.00000
    9    -13.89144    2.00000
   10    -13.38542    2.00000
   11    -13.26868    2.00000
   12    -12.40738    2.00000
   13    -11.77814    2.00000
   14    -10.97447    2.00000
   15    -10.47783    2.00000
   16    -10.00356    2.00000
   17     -9.98190    2.00000
   18     -9.76452    2.00000
   19     -8.90314    2.00000
   20     -8.02935    2.00000
   21     -7.96722    2.00000
   22     -6.48110    1.99996
   23     -5.85899    1.98157
   24     -5.61714    1.81085
   25     -5.56460    1.69976
   26     -5.25798    0.41746
   27     -5.04221    0.05918
   28     -4.91563    0.01705
   29     -4.89629    0.01407
   30     -4.39265    0.00009
   31     -3.90793    0.00000
   32     -3.26030    0.00000
   33     -3.15204    0.00000
   34     -1.01319    0.00000
   35     -0.53596    0.00000
   36      0.23301    0.00000
   37      0.80971    0.00000
   38      1.10175    0.00000
   39      1.83653    0.00000
   40      3.56776    0.00000
   41      3.65648    0.00000
   42      3.97576    0.00000
   43      5.55750    0.00000
   44      6.07298    0.00000
   45      6.23016    0.00000
   46      6.64954    0.00000
   47      6.85755    0.00000
   48      7.46363    0.00000
   49      7.88410    0.00000
   50      8.07409    0.00000
   51      8.30219    0.00000
   52      8.41271    0.00000
   53      8.79078    0.00000
   54      8.84349    0.00000
   55      9.10566    0.00000
   56      9.40657    0.00000
   57      9.46329    0.00000
   58      9.78555    0.00000
   59      9.97705    0.00000
   60     10.29674    0.00000
   61     10.39911    0.00000
   62     10.45461    0.00000
   63     11.10335    0.00000
   64     11.15685    0.00000
   65     11.22706    0.00000
   66     11.52922    0.00000
   67     11.75862    0.00000
   68     11.94334    0.00000
   69     12.19088    0.00000
   70     12.31748    0.00000
   71     12.75836    0.00000
   72     12.97090    0.00000
   73     13.05428    0.00000
   74     13.36175    0.00000
   75     13.61801    0.00000


Forces in eV/Ang:
  0 C    55.26208   58.60350    8.31311
  1 C   -26.53083   29.40693   -9.19306
  2 C    -2.14643   -0.84356    0.26818
  3 C   -61.14370  -55.58304   -9.33754
  4 C    -0.02242   -0.30986    0.10981
  5 C    28.99951   24.93145   -3.46870
  6 C    -3.51335    2.19401   -1.03673
  7 C   -16.13755  -43.55320   10.30843
  8 C    15.80865   -9.61317    1.97374
  9 C     5.45048   -2.42343    1.29648
 10 C   -45.03580  -13.47127   -4.80774
 11 C     3.07070   -2.28823    0.29546
 12 C    45.92837   12.77112    5.31965

System changes: positions 

Initializing position-dependent things.

Density initialized from wave functions
                .----------------------------------------------------------.  
               /|                                                          |  
              / |                                                          |  
             /  |                                                          |  
            /   |                                                          |  
           /    |                                                          |  
          /     |                                                          |  
         /      |                                                          |  
        /       |                                                          |  
       /        |                                                          |  
      /         |                                                          |  
     /          |                                                          |  
    /           |                                                          |  
   /            |                                                          |  
  /             |                                                          |  
 *              |                                                          |  
 |              |                                                          |  
 |              |                C  C C         C                          |  
 |              |                          C C                             |  
 |              |                 C                                        |  
 |              |           C  CC  C  C                                    |  
 |              |                                                          |  
 |              .----------------------------------------------------------.  
 |             /                                                          /   
 |            /                                                          /    
 |           /                                                          /     
 |          /                                                          /      
 |         /                                                          /       
 |        /                                                          /        
 |       /                                                          /         
 |      /                                                          /          
 |     /                                                          /           
 |    /                                                          /            
 |   /                                                          /             
 |  /                                                          /              
 | /                                                          /               
 |/                                                          /                
 *----------------------------------------------------------*                 

Positions:
   0 C     11.213654   15.129676    9.000259
   1 C      9.753401   10.334007    9.007487
   2 C      8.775561    9.325321    9.029306
   3 C     10.532066   14.388843    8.898907
   4 C     12.576033    9.517890    9.268010
   5 C     10.944676   10.249820    9.098771
   6 C     13.730492   13.097092    9.207392
   7 C     10.213809    9.333753    9.279835
   8 C     11.355840    8.952211    9.361962
   9 C     11.751979   13.761788    9.085452
  10 C     14.892268   12.544319    9.336894
  11 C      9.134791   15.514211    8.761784
  12 C     15.903934   12.836636    9.454864

Unit cell:
           periodic     x           y           z      points  spacing
  1. axis:    no    24.000000    0.000000    0.000000   120     0.2000
  2. axis:    no     0.000000   24.000000    0.000000   120     0.2000
  3. axis:    no     0.000000    0.000000   18.000000    88     0.2045

  Lengths:  24.000000  24.000000  18.000000
  Angles:   90.000000  90.000000  90.000000

Effective grid spacing dv^(1/3) = 0.2015

                     log10-error:    total        iterations:
           time      wfs    density  energy       fermi  poisson
iter:   1  20:47:49          +inf   -54.700535    4      5      
iter:   2  20:47:50         -1.66   -54.645001    2      2      
iter:   3  20:47:51         -1.79   -54.601777    3      2      
iter:   4  20:47:52         -1.85   -54.540382    3      2      
iter:   5  20:47:53         -1.97   -54.516720    3      2      
iter:   6  20:47:54         -2.12   -54.505730    3      2      
iter:   7  20:47:55         -2.32   -54.500821    3      2      
iter:   8  20:47:56         -2.46   -54.499122    3      2      
iter:   9  20:47:57         -2.66   -54.498681    2      1      
iter:  10  20:47:57         -2.75   -54.497184    3      2      
iter:  11  20:47:58         -2.99   -54.496735    2      1      
iter:  12  20:47:59         -3.06   -54.496773    2      2      
iter:  13  20:48:00         -3.36   -54.495381    2      1      
iter:  14  20:48:01         -3.48   -54.494748    2      1      
iter:  15  20:48:02         -3.74   -54.496586    2      1      
iter:  16  20:48:02         -3.84   -54.496811    2      1      
iter:  17  20:48:03         -4.00   -54.496665    2      1      
iter:  18  20:48:04         -4.17   -54.496665    2      1      

Converged after 18 iterations.

Dipole moment: (-0.507065, -0.623398, -0.011225) |e|*Ang

Energy contributions relative to reference atoms: (reference = -13359.165501)

Kinetic:       +199.147642
Potential:     -152.223535
External:        +0.000000
XC:            -102.773672
Entropy (-ST):   -0.318087
Local:           +1.511943
--------------------------
Free energy:    -54.655708
Extrapolated:   -54.496665

Fermi level: -5.38726

 Band  Eigenvalues  Occupancy
    0    -33.14036    2.00000
    1    -25.96198    2.00000
    2    -25.87829    2.00000
    3    -21.95066    2.00000
    4    -21.04200    2.00000
    5    -19.47926    2.00000
    6    -17.77766    2.00000
    7    -17.25229    2.00000
    8    -16.54728    2.00000
    9    -13.71174    2.00000
   10    -13.28989    2.00000
   11    -13.10756    2.00000
   12    -11.84308    2.00000
   13    -11.73796    2.00000
   14    -11.04922    2.00000
   15    -10.39214    2.00000
   16     -9.96313    2.00000
   17     -9.92722    2.00000
   18     -9.67785    2.00000
   19     -8.84094    2.00000
   20     -8.00215    2.00000
   21     -7.80873    2.00000
   22     -6.58276    1.99999
   23     -6.13854    1.99891
   24     -5.60659    1.79929
   25     -5.53570    1.63048
   26     -5.27038    0.47415
   27     -5.05467    0.06939
   28     -4.90814    0.01647
   29     -4.86960    0.01123
   30     -4.38905    0.00009
   31     -3.84010    0.00000
   32     -3.10742    0.00000
   33     -3.05015    0.00000
   34     -1.02833    0.00000
   35     -0.53197    0.00000
   36      0.21026    0.00000
   37      0.61975    0.00000
   38      0.78672    0.00000
   39      1.10973    0.00000
   40      3.14515    0.00000
   41      3.45794    0.00000
   42      3.96347    0.00000
   43      5.25350    0.00000
   44      5.92138    0.00000
   45      6.29293    0.00000
   46      6.74275    0.00000
   47      6.84801    0.00000
   48      7.50680    0.00000
   49      8.01694    0.00000
   50      8.03228    0.00000
   51      8.31794    0.00000
   52      8.59075    0.00000
   53      8.77764    0.00000
   54      8.86452    0.00000
   55      9.16328    0.00000
   56      9.33494    0.00000
   57      9.49325    0.00000
   58      9.80105    0.00000
   59      9.98028    0.00000
   60     10.17683    0.00000
   61     10.42290    0.00000
   62     10.45840    0.00000
   63     11.08616    0.00000
   64     11.17035    0.00000
   65     11.27167    0.00000
   66     11.50222    0.00000
   67     11.67038    0.00000
   68     11.79676    0.00000
   69     12.04233    0.00000
   70     12.25392    0.00000
   71     12.52235    0.00000
   72     12.89108    0.00000
   73     12.93913    0.00000
   74     13.27603    0.00000
   75     13.41424    0.00000


Forces in eV/Ang:
  0 C    35.14234   36.16948    5.35006
  1 C   -20.10968   24.59949   -7.57737
  2 C    -1.99063   -1.11664    0.33699
  3 C   -40.32318  -33.99834   -6.24390
  4 C     0.02325    0.02474    0.04380
  5 C    22.98051   21.48903   -3.04112
  6 C    -4.11941    2.37371   -1.12688
  7 C   -15.22760  -35.86669    8.36497
  8 C    14.21711   -9.06654    1.85824
  9 C     4.38733   -1.22362    1.14584
 10 C   -32.54989  -10.37960   -3.35401
 11 C     3.37132   -2.47729    0.32190
 12 C    34.08231    9.39219    3.91161

System changes: positions 

Initializing position-dependent things.

Density initialized from wave functions
                .----------------------------------------------------------.  
               /|                                                          |  
              / |                                                          |  
             /  |                                                          |  
            /   |                                                          |  
           /    |                                                          |  
          /     |                                                          |  
         /      |                                                          |  
        /       |                                                          |  
       /        |                                                          |  
      /         |                                                          |  
     /          |                                                          |  
    /           |                                                          |  
   /            |                                                          |  
  /             |                                                          |  
 *              |                                                          |  
 |              |                                                          |  
 |              |                C  C CC        C                          |  
 |              |                          C C                             |  
 |              |                 C                                        |  
 |              |           C  CC  C  C                                    |  
 |              |                                                          |  
 |              .----------------------------------------------------------.  
 |             /                                                          /   
 |            /                                                          /    
 |           /                                                          /     
 |          /                                                          /      
 |         /                                                          /       
 |        /                                                          /        
 |       /                                                          /         
 |      /                                                          /          
 |     /                                                          /           
 |    /                                                          /            
 |   /                                                          /             
 |  /                                                          /              
 | /                                                          /               
 |/                                                          /                
 *----------------------------------------------------------*                 

Positions:
   0 C     11.210131   15.121093    9.000010
   1 C      9.740791   10.358185    9.000427
   2 C      8.772935    9.322813    9.030024
   3 C     10.529602   14.398340    8.898151
   4 C     12.576200    9.518889    9.267888
   5 C     10.962874   10.273115    9.095303
   6 C     13.722390   13.101274    9.205393
   7 C     10.192909    9.300446    9.287170
   8 C     11.373222    8.939781    9.364499
   9 C     11.755700   13.763345    9.086788
  10 C     14.877868   12.537171    9.335890
  11 C      9.140860   15.509842    8.762357
  12 C     15.922539   12.841434    9.456860

Unit cell:
           periodic     x           y           z      points  spacing
  1. axis:    no    24.000000    0.000000    0.000000   120     0.2000
  2. axis:    no     0.000000   24.000000    0.000000   120     0.2000
  3. axis:    no     0.000000    0.000000   18.000000    88     0.2045

  Lengths:  24.000000  24.000000  18.000000
  Angles:   90.000000  90.000000  90.000000

Effective grid spacing dv^(1/3) = 0.2015

                     log10-error:    total        iterations:
           time      wfs    density  energy       fermi  poisson
iter:   1  20:48:06          +inf   -58.380987    3      5      
iter:   2  20:48:07         -1.64   -58.345201    2      2      
iter:   3  20:48:08         -1.87   -58.338021    2      2      
iter:   4  20:48:09         -1.93   -58.326295    3      2      
iter:   5  20:48:10         -2.12   -58.320669    3      2      
iter:   6  20:48:11         -2.28   -58.314489    3      2      
iter:   7  20:48:11         -2.64   -58.311938    2      1      
iter:   8  20:48:12         -2.71   -58.309383    2      2      
iter:   9  20:48:13         -2.95   -58.308316    2      1      
iter:  10  20:48:14         -3.05   -58.306757    2      1      
iter:  11  20:48:15         -3.18   -58.305824    2      1      
iter:  12  20:48:16         -3.31   -58.308864    2      1      
iter:  13  20:48:17         -3.14   -58.308666    2      1      
iter:  14  20:48:17         -3.77   -58.309120    2      1      
iter:  15  20:48:18         -3.77   -58.308997    2      1      
iter:  16  20:48:19         -3.82   -58.308691    2      1      
iter:  17  20:48:20         -3.79   -58.308952    2      1      
iter:  18  20:48:21         -4.02   -58.309338    2      1      

Converged after 18 iterations.

Dipole moment: (-0.462962, -0.548393, -0.008329) |e|*Ang

Energy contributions relative to reference atoms: (reference = -13359.165501)

Kinetic:       +176.613514
Potential:     -136.992141
External:        +0.000000
XC:             -99.291174
Entropy (-ST):   -0.296738
Local:           +1.508832
--------------------------
Free energy:    -58.457707
Extrapolated:   -58.309338

Fermi level: -5.40036

 Band  Eigenvalues  Occupancy
    0    -31.93384    2.00000
    1    -25.95184    2.00000
    2    -25.28376    2.00000
    3    -21.89592    2.00000
    4    -20.58087    2.00000
    5    -19.04577    2.00000
    6    -17.77686    2.00000
    7    -17.37498    2.00000
    8    -15.65171    2.00000
    9    -13.40765    2.00000
   10    -13.31479    2.00000
   11    -12.79195    2.00000
   12    -11.93360    2.00000
   13    -11.80646    2.00000
   14    -11.10364    2.00000
   15    -10.40847    2.00000
   16     -9.89560    2.00000
   17     -9.83927    2.00000
   18     -9.49114    2.00000
   19     -8.69962    2.00000
   20     -7.93007    2.00000
   21     -7.88587    2.00000
   22     -6.61209    1.99999
   23     -6.36598    1.99987
   24     -5.63076    1.81842
   25     -5.56238    1.66965
   26     -5.26664    0.41597
   27     -5.08280    0.08019
   28     -4.89078    0.01217
   29     -4.76993    0.00365
   30     -4.38796    0.00008
   31     -3.84804    0.00000
   32     -3.15410    0.00000
   33     -2.83221    0.00000
   34     -0.96991    0.00000
   35     -0.50236    0.00000
   36      0.15634    0.00000
   37      0.30769    0.00000
   38      0.68522    0.00000
   39      1.19744    0.00000
   40      2.75314    0.00000
   41      3.48867    0.00000
   42      3.98360    0.00000
   43      5.21279    0.00000
   44      5.71161    0.00000
   45      6.39607    0.00000
   46      6.92187    0.00000
   47      6.97935    0.00000
   48      7.59625    0.00000
   49      8.01535    0.00000
   50      8.03000    0.00000
   51      8.27454    0.00000
   52      8.45488    0.00000
   53      8.78282    0.00000
   54      8.88491    0.00000
   55      9.23916    0.00000
   56      9.30820    0.00000
   57      9.46392    0.00000
   58      9.81845    0.00000
   59      9.91834    0.00000
   60     10.11352    0.00000
   61     10.42732    0.00000
   62     10.47375    0.00000
   63     11.09185    0.00000
   64     11.21800    0.00000
   65     11.28742    0.00000
   66     11.36411    0.00000
   67     11.58505    0.00000
   68     11.77059    0.00000
   69     11.92025    0.00000
   70     12.23427    0.00000
   71     12.54904    0.00000
   72     12.81250    0.00000
   73     12.90607    0.00000
   74     13.15135    0.00000
   75     13.34519    0.00000


Forces in eV/Ang:
  0 C    38.58566   38.95393    5.89592
  1 C   -12.98627   19.22915   -5.76428
  2 C    -1.54181   -1.32952    0.44825
  3 C   -43.50979  -36.79483   -6.75928
  4 C     0.09647    0.64374   -0.07514
  5 C    16.31169   16.39000   -2.30668
  6 C    -4.36755    2.37533   -1.11962
  7 C   -12.24054  -27.34270    6.17531
  8 C    10.30167   -7.49639    1.51911
  9 C     4.51138   -1.34352    1.13216
 10 C   -25.17463   -8.21433   -2.51257
 11 C     3.32991   -2.48839    0.30874
 12 C    26.59437    7.29776    3.04755

System changes: positions 

Initializing position-dependent things.

Density initialized from wave functions
                .----------------------------------------------------------.  
               /|                                                          |  
              / |                                                          |  
             /  |                                                          |  
            /   |                                                          |  
           /    |                                                          |  
          /     |                                                          |  
         /      |                                                          |  
        /       |                                                          |  
       /        |                                                          |  
      /         |                                                          |  
     /          |                                                          |  
    /           |                                                          |  
   /            |                                                          |  
  /             |                                                          |  
 *              |                                                          |  
 |              |                                                          |  
 |              |                C  C CC        C                          |  
 |              |                          C C                             |  
 |              |                 C                                        |  
 |              |           C  CC  C  C                                    |  
 |              |                                                          |  
 |              .----------------------------------------------------------.  
 |             /                                                          /   
 |            /                                                          /    
 |           /                                                          /     
 |          /                                                          /      
 |         /                                                          /       
 |        /                                                          /        
 |       /                                                          /         
 |      /                                                          /          
 |     /                                                          /           
 |    /                                                          /            
 |   /                                                          /             
 |  /                                                          /              
 | /                                                          /               
 |/                                                          /                
 *----------------------------------------------------------*                 

Positions:
   0 C     11.229189   15.125582    9.003654
   1 C      9.752771   10.382158    8.994817
   2 C      8.769648    9.315988    9.032280
   3 C     10.498374   14.396107    8.892384
   4 C     12.576998    9.524716    9.266926
   5 C     10.966047   10.296279    9.091735
   6 C     13.702876   13.110635    9.200967
   7 C     10.163372    9.273784    9.291261
   8 C     11.389533    8.920984    9.368228
   9 C     11.765155   13.765747    9.089763
  10 C     14.885365   12.532985    9.338175
  11 C      9.154175   15.500007    8.763560
  12 C     15.923625   12.840846    9.456659

Unit cell:
           periodic     x           y           z      points  spacing
  1. axis:    no    24.000000    0.000000    0.000000   120     0.2000
  2. axis:    no     0.000000   24.000000    0.000000   120     0.2000
  3. axis:    no     0.000000    0.000000   18.000000    88     0.2045

  Lengths:  24.000000  24.000000  18.000000
  Angles:   90.000000  90.000000  90.000000

Effective grid spacing dv^(1/3) = 0.2015

                     log10-error:    total        iterations:
           time      wfs    density  energy       fermi  poisson
iter:   1  20:48:23          +inf   -62.801221    3      5      
iter:   2  20:48:24         -1.45   -62.621477    2      2      
iter:   3  20:48:24         -1.79   -62.598641    2      2      
iter:   4  20:48:25         -1.85   -62.571093    3      2      
iter:   5  20:48:26         -1.98   -62.560559    3      2      
iter:   6  20:48:27         -2.11   -62.551864    2      2      
iter:   7  20:48:28         -2.20   -62.548180    2      2      
iter:   8  20:48:29         -2.43   -62.546515    2      2      
iter:   9  20:48:30         -2.59   -62.545458    2      2      
iter:  10  20:48:31         -2.87   -62.545325    2      1      
iter:  11  20:48:31         -2.97   -62.544078    2      1      
iter:  12  20:48:32         -3.05   -62.544458    2      1      
iter:  13  20:48:33         -3.26   -62.546035    2      1      
iter:  14  20:48:34         -3.47   -62.545048    2      1      
iter:  15  20:48:35         -3.59   -62.544782    2      1      
iter:  16  20:48:36         -3.70   -62.544777    2      1      
iter:  17  20:48:36         -3.87   -62.544480    2      1      
iter:  18  20:48:37         -3.98   -62.544617    1      1      
iter:  19  20:48:38         -4.08   -62.544743    2      1      

Converged after 19 iterations.

Dipole moment: (-0.501351, -0.458667, -0.015788) |e|*Ang

Energy contributions relative to reference atoms: (reference = -13359.165501)

Kinetic:       +151.875463
Potential:     -120.299893
External:        +0.000000
XC:             -95.481119
Entropy (-ST):   -0.242007
Local:           +1.481809
--------------------------
Free energy:    -62.665746
Extrapolated:   -62.544743

Fermi level: -5.53110

 Band  Eigenvalues  Occupancy
    0    -31.02886    2.00000
    1    -25.77940    2.00000
    2    -24.61884    2.00000
    3    -21.81006    2.00000
    4    -20.26100    2.00000
    5    -18.62923    2.00000
    6    -17.77783    2.00000
    7    -17.41306    2.00000
    8    -14.99149    2.00000
    9    -13.44967    2.00000
   10    -13.20918    2.00000
   11    -12.56865    2.00000
   12    -12.00140    2.00000
   13    -11.70896    2.00000
   14    -11.06329    2.00000
   15    -10.48500    2.00000
   16     -9.84333    2.00000
   17     -9.77108    2.00000
   18     -9.26523    2.00000
   19     -8.57960    2.00000
   20     -7.99984    2.00000
   21     -7.86226    2.00000
   22     -6.84391    2.00000
   23     -6.33282    1.99934
   24     -5.79664    1.86868
   25     -5.72689    1.75261
   26     -5.36395    0.31643
   27     -5.17148    0.05339
   28     -4.99547    0.00939
   29     -4.55701    0.00012
   30     -4.47314    0.00005
   31     -3.92386    0.00000
   32     -3.14657    0.00000
   33     -2.64494    0.00000
   34     -0.94010    0.00000
   35     -0.42251    0.00000
   36      0.06269    0.00000
   37      0.25515    0.00000
   38      0.53935    0.00000
   39      0.71035    0.00000
   40      2.67224    0.00000
   41      3.35551    0.00000
   42      3.91430    0.00000
   43      4.92623    0.00000
   44      5.41525    0.00000
   45      6.44327    0.00000
   46      6.99550    0.00000
   47      7.16747    0.00000
   48      7.69152    0.00000
   49      7.97740    0.00000
   50      8.01565    0.00000
   51      8.12162    0.00000
   52      8.30991    0.00000
   53      8.82603    0.00000
   54      8.90719    0.00000
   55      9.13635    0.00000
   56      9.29605    0.00000
   57      9.40921    0.00000
   58      9.82628    0.00000
   59      9.87129    0.00000
   60     10.08329    0.00000
   61     10.34938    0.00000
   62     10.41262    0.00000
   63     10.99746    0.00000
   64     11.17899    0.00000
   65     11.22252    0.00000
   66     11.39647    0.00000
   67     11.44264    0.00000
   68     11.71546    0.00000
   69     11.84572    0.00000
   70     12.14695    0.00000
   71     12.35642    0.00000
   72     12.65660    0.00000
   73     12.80464    0.00000
   74     12.90956    0.00000
   75     13.15886    0.00000


Forces in eV/Ang:
  0 C    31.13304   29.12494    4.85349
  1 C   -11.49263   16.45144   -5.04021
  2 C    -0.97232   -0.89082    0.45045
  3 C   -35.07726  -27.41088   -5.54911
  4 C    -0.07506    0.95191   -0.15235
  5 C    14.75439   12.28024   -1.50976
  6 C    -3.18458    1.56036   -0.93302
  7 C    -8.68148  -23.45489    5.14085
  8 C     6.34786   -5.22859    1.08668
  9 C     3.99716   -0.79250    0.97490
 10 C   -27.87116   -7.70005   -2.79561
 11 C     3.41250   -2.61765    0.30237
 12 C    27.56977    7.71815    3.12087

System changes: positions 

Initializing position-dependent things.

Density initialized from wave functions
                .----------------------------------------------------------.  
               /|                                                          |  
              / |                                                          |  
             /  |                                                          |  
            /   |                                                          |  
           /    |                                                          |  
          /     |                                                          |  
         /      |                                                          |  
        /       |                                                          |  
       /        |                                                          |  
      /         |                                                          |  
     /          |                                                          |  
    /           |                                                          |  
   /            |                                                          |  
  /             |                                                          |  
 *              |                                                          |  
 |              |                                                          |  
 |              |                C  C CC        C                          |  
 |              |                          C C                             |  
 |              |                 C                                        |  
 |              |           C   C  C  C                                    |  
 |              |                                                          |  
 |              .----------------------------------------------------------.  
 |             /                                                          /   
 |            /                                                          /    
 |           /                                                          /     
 |          /                                                          /      
 |         /                                                          /       
 |        /                                                          /        
 |       /                                                          /         
 |      /                                                          /          
 |     /                                                          /           
 |    /                                                          /            
 |   /                                                          /             
 |  /                                                          /              
 | /                                                          /               
 |/                                                          /                
 *----------------------------------------------------------*                 

Positions:
   0 C     11.253673   15.114835    9.008991
   1 C      9.774042   10.403992    8.989647
   2 C      8.768987    9.309310    9.035686
   3 C     10.461267   14.408968    8.884788
   4 C     12.576889    9.535743    9.264918
   5 C     10.966915   10.303874    9.091992
   6 C     13.683189   13.118368    9.195838
   7 C     10.145855    9.252458    9.292188
   8 C     11.384601    8.909605    9.370604
   9 C     11.778378   13.770574    9.093467
  10 C     14.854070   12.525239    9.336900
  11 C      9.174356   15.484465    8.765271
  12 C     15.953440   12.849090    9.459405

Unit cell:
           periodic     x           y           z      points  spacing
  1. axis:    no    24.000000    0.000000    0.000000   120     0.2000
  2. axis:    no     0.000000   24.000000    0.000000   120     0.2000
  3. axis:    no     0.000000    0.000000   18.000000    88     0.2045

  Lengths:  24.000000  24.000000  18.000000
  Angles:   90.000000  90.000000  90.000000

Effective grid spacing dv^(1/3) = 0.2015

                     log10-error:    total        iterations:
           time      wfs    density  energy       fermi  poisson
iter:   1  20:48:40          +inf   -66.768193    3      5      
iter:   2  20:48:41         -1.50   -66.632865    2      2      
iter:   3  20:48:42         -1.77   -66.615568    2      2      
iter:   4  20:48:43         -1.81   -66.577079    3      2      
iter:   5  20:48:44         -1.99   -66.579906    3      2      
iter:   6  20:48:45         -2.05   -66.571963    3      2      
iter:   7  20:48:45         -2.21   -66.565113    2      2      
iter:   8  20:48:46         -2.35   -66.563001    2      2      
iter:   9  20:48:47         -2.72   -66.560925    2      2      
iter:  10  20:48:48         -2.84   -66.561738    2      1      
iter:  11  20:48:49         -3.03   -66.558958    2      1      
iter:  12  20:48:50         -3.14   -66.559901    2      1      
iter:  13  20:48:51         -3.21   -66.562064    2      1      
iter:  14  20:48:51         -3.45   -66.559403    2      1      
iter:  15  20:48:52         -3.63   -66.559547    2      1      
iter:  16  20:48:53         -3.77   -66.559517    2      1      
iter:  17  20:48:54         -4.02   -66.559780    2      1      

Converged after 17 iterations.

Dipole moment: (-0.350064, -0.355891, -0.011085) |e|*Ang

Energy contributions relative to reference atoms: (reference = -13359.165501)

Kinetic:       +129.642762
Potential:     -105.312678
External:        +0.000000
XC:             -92.263578
Entropy (-ST):   -0.162243
Local:           +1.454836
--------------------------
Free energy:    -66.640901
Extrapolated:   -66.559780

Fermi level: -5.54363

 Band  Eigenvalues  Occupancy
    0    -30.43803    2.00000
    1    -25.55187    2.00000
    2    -24.08445    2.00000
    3    -21.68387    2.00000
    4    -19.90952    2.00000
    5    -18.36593    2.00000
    6    -17.84475    2.00000
    7    -17.48230    2.00000
    8    -14.53396    2.00000
    9    -13.53436    2.00000
   10    -13.07665    2.00000
   11    -12.31632    2.00000
   12    -12.01368    2.00000
   13    -11.54595    2.00000
   14    -10.89442    2.00000
   15    -10.49054    2.00000
   16     -9.75913    2.00000
   17     -9.64378    2.00000
   18     -8.95098    2.00000
   19     -8.49453    2.00000
   20     -8.13672    2.00000
   21     -7.72725    2.00000
   22     -6.88028    2.00000
   23     -6.73790    1.99999
   24     -5.86930    1.92583
   25     -5.80270    1.86051
   26     -5.31153    0.17879
   27     -5.10988    0.02580
   28     -5.00278    0.00892
   29     -4.60587    0.00017
   30     -4.23200    0.00000
   31     -3.88620    0.00000
   32     -3.05493    0.00000
   33     -2.41852    0.00000
   34     -0.84427    0.00000
   35     -0.20575    0.00000
   36     -0.13612    0.00000
   37      0.12767    0.00000
   38      0.42148    0.00000
   39      0.56821    0.00000
   40      1.99600    0.00000
   41      3.38031    0.00000
   42      3.87304    0.00000
   43      4.96186    0.00000
   44      5.35123    0.00000
   45      6.51423    0.00000
   46      7.10056    0.00000
   47      7.36013    0.00000
   48      7.70537    0.00000
   49      7.92955    0.00000
   50      7.99106    0.00000
   51      8.15820    0.00000
   52      8.32106    0.00000
   53      8.93138    0.00000
   54      8.94409    0.00000
   55      9.06726    0.00000
   56      9.35032    0.00000
   57      9.44533    0.00000
   58      9.67050    0.00000
   59      9.94314    0.00000
   60     10.00907    0.00000
   61     10.35292    0.00000
   62     10.42213    0.00000
   63     10.93262    0.00000
   64     11.19835    0.00000
   65     11.24377    0.00000
   66     11.47226    0.00000
   67     11.56938    0.00000
   68     11.62429    0.00000
   69     11.85432    0.00000
   70     12.06678    0.00000
   71     12.24549    0.00000
   72     12.43432    0.00000
   73     12.70580    0.00000
   74     12.94592    0.00000
   75     13.00544    0.00000


Forces in eV/Ang:
  0 C    27.08128   22.49438    4.33733
  1 C   -12.00541   14.40878   -4.51969
  2 C    -0.55457   -0.39711    0.37336
  3 C   -29.97499  -20.88656   -4.79087
  4 C    -0.90466    0.70765   -0.12267
  5 C    15.36130   10.40826   -1.08431
  6 C    -3.59617    1.60206   -0.83264
  7 C    -8.03360  -20.84390    4.39496
  8 C     6.01365   -4.25427    0.96456
  9 C     3.56644   -0.72042    0.74729
 10 C   -17.25855   -4.45438   -1.61973
 11 C     3.31974   -2.72072    0.31245
 12 C    16.85373    4.59616    1.87015

System changes: positions 

Initializing position-dependent things.

Density initialized from wave functions
                .----------------------------------------------------------.  
               /|                                                          |  
              / |                                                          |  
             /  |                                                          |  
            /   |                                                          |  
           /    |                                                          |  
          /     |                                                          |  
         /      |                                                          |  
        /       |                                                          |  
       /        |                                                          |  
      /         |                                                          |  
     /          |                                                          |  
    /           |                                                          |  
   /            |                                                          |  
  /             |                                                          |  
 *              |                                                          |  
 |              |                                                          |  
 |              |                C  C CC        C                          |  
 |              |                          C C                             |  
 |              |                 C                                        |  
 |              |           C   C  C  C                                    |  
 |              |                                                          |  
 |              .----------------------------------------------------------.  
 |             /                                                          /   
 |            /                                                          /    
 |           /                                                          /     
 |          /                                                          /      
 |         /                                                          /       
 |        /                                                          /        
 |       /                                                          /         
 |      /                                                          /          
 |     /                                                          /           
 |    /                                                          /            
 |   /                                                          /             
 |  /                                                          /              
 | /                                                          /               
 |/                                                          /                
 *----------------------------------------------------------*                 

Positions:
   0 C     11.282149   15.099174    9.015249
   1 C      9.773931   10.423985    8.983768
   2 C      8.770635    9.307061    9.038195
   3 C     10.426351   14.427134    8.877655
   4 C     12.572025    9.543845    9.263351
   5 C     10.986696   10.306875    9.094040
   6 C     13.665824   13.124289    9.192049
   7 C     10.133392    9.228904    9.293525
   8 C     11.379621    8.904786    9.372108
   9 C     11.789655   13.773859    9.095792
  10 C     14.846200   12.527832    9.337914
  11 C      9.192064   15.469773    8.766856
  12 C     15.955927   12.849367    9.459005

Unit cell:
           periodic     x           y           z      points  spacing
  1. axis:    no    24.000000    0.000000    0.000000   120     0.2000
  2. axis:    no     0.000000   24.000000    0.000000   120     0.2000
  3. axis:    no     0.000000    0.000000   18.000000    88     0.2045

  Lengths:  24.000000  24.000000  18.000000
  Angles:   90.000000  90.000000  90.000000

Effective grid spacing dv^(1/3) = 0.2015

                     log10-error:    total        iterations:
           time      wfs    density  energy       fermi  poisson
iter:   1  20:48:56          +inf   -69.312964    3      5      
iter:   2  20:48:57         -1.63   -69.234418    2      2      
iter:   3  20:48:58         -1.89   -69.220754    2      2      
iter:   4  20:48:59         -1.95   -69.195690    2      2      
iter:   5  20:48:59         -2.16   -69.195567    2      2      
iter:   6  20:49:00         -2.25   -69.196092    2      2      
iter:   7  20:49:01         -2.40   -69.192284    2      2      
iter:   8  20:49:02         -2.59   -69.191372    2      2      
iter:   9  20:49:03         -2.93   -69.191681    2      1      
iter:  10  20:49:04         -3.00   -69.191939    2      1      
iter:  11  20:49:05         -3.14   -69.190781    2      1      
iter:  12  20:49:05         -3.29   -69.190430    1      1      
iter:  13  20:49:06         -3.39   -69.191047    2      1      
iter:  14  20:49:07         -3.59   -69.191136    2      1      
iter:  15  20:49:08         -3.89   -69.190228    1      1      
iter:  16  20:49:09         -3.96   -69.190143    2      1      
iter:  17  20:49:10         -4.03   -69.190255    2      1      

Converged after 17 iterations.

Dipole moment: (-0.339764, -0.305260, -0.014008) |e|*Ang

Energy contributions relative to reference atoms: (reference = -13359.165501)

Kinetic:       +115.563152
Potential:      -95.839513
External:        +0.000000
XC:             -90.304873
Entropy (-ST):   -0.126013
Local:           +1.453986
--------------------------
Free energy:    -69.253261
Extrapolated:   -69.190255

Fermi level: -5.58956

 Band  Eigenvalues  Occupancy
    0    -29.84105    2.00000
    1    -25.35299    2.00000
    2    -23.82819    2.00000
    3    -21.60989    2.00000
    4    -19.62733    2.00000
    5    -18.24460    2.00000
    6    -18.01580    2.00000
    7    -17.53405    2.00000
    8    -14.14561    2.00000
    9    -13.65535    2.00000
   10    -12.93612    2.00000
   11    -12.12854    2.00000
   12    -12.00425    2.00000
   13    -11.43211    2.00000
   14    -10.95493    2.00000
   15    -10.54557    2.00000
   16     -9.71275    2.00000
   17     -9.59525    2.00000
   18     -8.81051    2.00000
   19     -8.47709    2.00000
   20     -8.30840    2.00000
   21     -7.64414    2.00000
   22     -6.85645    1.99999
   23     -6.75309    1.99998
   24     -5.94800    1.94599
   25     -5.88982    1.90539
   26     -5.31006    0.11519
   27     -5.15424    0.02541
   28     -5.03443    0.00774
   29     -4.71166    0.00031
   30     -4.14121    0.00000
   31     -3.85804    0.00000
   32     -2.93684    0.00000
   33     -2.18588    0.00000
   34     -0.83523    0.00000
   35     -0.23457    0.00000
   36     -0.03138    0.00000
   37      0.17451    0.00000
   38      0.24040    0.00000
   39      0.58649    0.00000
   40      1.87188    0.00000
   41      3.31704    0.00000
   42      3.79135    0.00000
   43      5.00967    0.00000
   44      5.39611    0.00000
   45      6.55684    0.00000
   46      7.08330    0.00000
   47      7.41576    0.00000
   48      7.50550    0.00000
   49      7.99395    0.00000
   50      8.13809    0.00000
   51      8.20679    0.00000
   52      8.30421    0.00000
   53      8.91627    0.00000
   54      8.96348    0.00000
   55      9.02753    0.00000
   56      9.32369    0.00000
   57      9.48944    0.00000
   58      9.65538    0.00000
   59      9.95790    0.00000
   60      9.98603    0.00000
   61     10.34396    0.00000
   62     10.39868    0.00000
   63     10.81202    0.00000
   64     11.13651    0.00000
   65     11.26076    0.00000
   66     11.45949    0.00000
   67     11.59041    0.00000
   68     11.60665    0.00000
   69     11.85873    0.00000
   70     11.97927    0.00000
   71     12.10721    0.00000
   72     12.26013    0.00000
   73     12.63802    0.00000
   74     12.83580    0.00000
   75     12.91070    0.00000


Forces in eV/Ang:
  0 C    23.51084   17.34559    3.79478
  1 C    -8.84128   11.51258   -3.55697
  2 C    -0.60741   -0.10869    0.26000
  3 C   -25.71458  -15.49886   -4.10940
  4 C    -1.26303    0.71318   -0.11210
  5 C    12.22955    9.23275   -1.06126
  6 C    -3.17514    1.44840   -0.58919
  7 C    -7.44487  -17.17520    3.48440
  8 C     5.83340   -4.18222    1.00166
  9 C     3.23681   -1.05886    0.54038
 10 C   -16.50336   -3.78835   -1.59007
 11 C     3.03663   -2.68108    0.25457
 12 C    15.52341    4.15808    1.69234

System changes: positions 

Initializing position-dependent things.

Density initialized from wave functions
                .----------------------------------------------------------.  
               /|                                                          |  
              / |                                                          |  
             /  |                                                          |  
            /   |                                                          |  
           /    |                                                          |  
          /     |                                                          |  
         /      |                                                          |  
        /       |                                                          |  
       /        |                                                          |  
      /         |                                                          |  
     /          |                                                          |  
    /           |                                                          |  
   /            |                                                          |  
  /             |                                                          |  
 *              |                                                          |  
 |              |                                                          |  
 |              |                C  C CC        C                          |  
 |              |                          C C                             |  
 |              |                 C                                        |  
 |              |           C   C  C  C                                    |  
 |              |                                                          |  
 |              .----------------------------------------------------------.  
 |             /                                                          /   
 |            /                                                          /    
 |           /                                                          /     
 |          /                                                          /      
 |         /                                                          /       
 |        /                                                          /        
 |       /                                                          /         
 |      /                                                          /          
 |     /                                                          /           
 |    /                                                          /            
 |   /                                                          /             
 |  /                                                          /              
 | /                                                          /               
 |/                                                          /                
 *----------------------------------------------------------*                 

Positions:
   0 C     11.310962   15.080754    9.021216
   1 C      9.781853   10.433409    8.981474
   2 C      8.770743    9.307260    9.039474
   3 C     10.394916   14.451124    8.871633
   4 C     12.564600    9.549960    9.262268
   5 C     10.996452   10.313206    9.094246
   6 C     13.652009   13.129503    9.190242
   7 C     10.118639    9.214999    9.292959
   8 C     11.383453    8.896650    9.374645
   9 C     11.799229   13.772424    9.096694
  10 C     14.833850   12.530981    9.337769
  11 C      9.205827   15.456877    8.767886
  12 C     15.960673   12.849644    9.458835

Unit cell:
           periodic     x           y           z      points  spacing
  1. axis:    no    24.000000    0.000000    0.000000   120     0.2000
  2. axis:    no     0.000000   24.000000    0.000000   120     0.2000
  3. axis:    no     0.000000    0.000000   18.000000    88     0.2045

  Lengths:  24.000000  24.000000  18.000000
  Angles:   90.000000  90.000000  90.000000

Effective grid spacing dv^(1/3) = 0.2015

                     log10-error:    total        iterations:
           time      wfs    density  energy       fermi  poisson
iter:   1  20:49:12          +inf   -71.147793    3      5      
iter:   2  20:49:12         -1.70   -71.084580    2      2      
iter:   3  20:49:13         -1.93   -71.072528    2      2      
iter:   4  20:49:14         -2.00   -71.053005    2      2      
iter:   5  20:49:15         -2.25   -71.050382    2      2      
iter:   6  20:49:16         -2.35   -71.052250    2      2      
iter:   7  20:49:17         -2.59   -71.049665    2      2      
iter:   8  20:49:18         -2.76   -71.049800    2      2      
iter:   9  20:49:19         -3.04   -71.050218    2      1      
iter:  10  20:49:20         -3.11   -71.051722    2      1      
iter:  11  20:49:20         -3.43   -71.050107    2      1      
iter:  12  20:49:21         -3.52   -71.050019    2      1      
iter:  13  20:49:22         -3.64   -71.049903    2      1      
iter:  14  20:49:23         -3.78   -71.049389    2      1      
iter:  15  20:49:24         -3.94   -71.049314    2      1      
iter:  16  20:49:24         -4.04   -71.049475    2      1      

Converged after 16 iterations.

Dipole moment: (-0.308624, -0.273364, -0.011858) |e|*Ang

Energy contributions relative to reference atoms: (reference = -13359.165501)

Kinetic:       +107.239695
Potential:      -90.440786
External:        +0.000000
XC:             -89.252467
Entropy (-ST):   -0.102777
Local:           +1.455471
--------------------------
Free energy:    -71.100864
Extrapolated:   -71.049475

Fermi level: -5.64102

 Band  Eigenvalues  Occupancy
    0    -29.46339    2.00000
    1    -25.12025    2.00000
    2    -23.64115    2.00000
    3    -21.53640    2.00000
    4    -19.51854    2.00000
    5    -18.23025    2.00000
    6    -18.10208    2.00000
    7    -17.55382    2.00000
    8    -13.90684    2.00000
    9    -13.77726    2.00000
   10    -12.85488    2.00000
   11    -12.08060    2.00000
   12    -11.96638    2.00000
   13    -11.31482    2.00000
   14    -10.92338    2.00000
   15    -10.58892    2.00000
   16     -9.65878    2.00000
   17     -9.55307    2.00000
   18     -8.73760    2.00000
   19     -8.43063    2.00000
   20     -8.41684    2.00000
   21     -7.56860    2.00000
   22     -6.91734    1.99999
   23     -6.63783    1.99991
   24     -6.03302    1.96109
   25     -5.96671    1.92584
   26     -5.32710    0.08303
   27     -5.20161    0.02440
   28     -5.05066    0.00544
   29     -4.75923    0.00030
   30     -3.99072    0.00000
   31     -3.77977    0.00000
   32     -2.80368    0.00000
   33     -1.99655    0.00000
   34     -0.88613    0.00000
   35     -0.21480    0.00000
   36      0.01246    0.00000
   37      0.18626    0.00000
   38      0.23709    0.00000
   39      0.59337    0.00000
   40      1.72940    0.00000
   41      3.20373    0.00000
   42      3.66737    0.00000
   43      5.06478    0.00000
   44      5.60100    0.00000
   45      6.60209    0.00000
   46      7.11084    0.00000
   47      7.28700    0.00000
   48      7.57548    0.00000
   49      8.03808    0.00000
   50      8.24766    0.00000
   51      8.28171    0.00000
   52      8.33362    0.00000
   53      8.92114    0.00000
   54      8.98323    0.00000
   55      9.04763    0.00000
   56      9.34728    0.00000
   57      9.52051    0.00000
   58      9.64345    0.00000
   59      9.96835    0.00000
   60     10.00096    0.00000
   61     10.35870    0.00000
   62     10.39263    0.00000
   63     10.70711    0.00000
   64     11.17895    0.00000
   65     11.29346    0.00000
   66     11.43523    0.00000
   67     11.60985    0.00000
   68     11.65901    0.00000
   69     11.80639    0.00000
   70     11.97385    0.00000
   71     12.03265    0.00000
   72     12.14071    0.00000
   73     12.65085    0.00000
   74     12.77403    0.00000
   75     12.89560    0.00000


Forces in eV/Ang:
  0 C    20.59663   13.54209    3.33529
  1 C    -8.15181   10.45980   -3.22046
  2 C    -0.76572    0.08167    0.16937
  3 C   -22.30927  -11.35444   -3.54949
  4 C    -1.28715    0.80022   -0.12153
  5 C    11.41671    8.08604   -0.86997
  6 C    -2.93176    1.56243   -0.39218
  7 C    -5.93696  -15.74603    3.15572
  8 C     4.63545   -3.65697    0.90117
  9 C     3.14875   -1.63016    0.39936
 10 C   -14.59127   -3.15193   -1.43216
 11 C     2.59627   -2.53938    0.18961
 12 C    13.43134    3.49041    1.44462

System changes: positions 

Initializing position-dependent things.

Density initialized from wave functions
                .----------------------------------------------------------.  
               /|                                                          |  
              / |                                                          |  
             /  |                                                          |  
            /   |                                                          |  
           /    |                                                          |  
          /     |                                                          |  
         /      |                                                          |  
        /       |                                                          |  
       /        |                                                          |  
      /         |                                                          |  
     /          |                                                          |  
    /           |                                                          |  
   /            |                                                          |  
  /             |                                                          |  
 *              |                                                          |  
 |              |                                                          |  
 |              |                C  C CC        C                          |  
 |              |                          C C                             |  
 |              |               C  C                                       |  
 |              |           C   C  C  C                                    |  
 |              |                                                          |  
 |              .----------------------------------------------------------.  
 |             /                                                          /   
 |            /                                                          /    
 |           /                                                          /     
 |          /                                                          /      
 |         /                                                          /       
 |        /                                                          /        
 |       /                                                          /         
 |      /                                                          /          
 |     /                                                          /           
 |    /                                                          /            
 |   /                                                          /             
 |  /                                                          /              
 | /                                                          /               
 |/                                                          /                
 *----------------------------------------------------------*                 

Positions:
   0 C     11.338666   15.062507    9.026574
   1 C      9.787317   10.443191    8.979207
   2 C      8.768499    9.308285    9.039996
   3 C     10.366246   14.478553    8.866559
   4 C     12.558334    9.556200    9.261243
   5 C     11.006492   10.318124    9.094676
   6 C     13.640194   13.136238    9.189850
   7 C     10.112542    9.200029    9.293229
   8 C     11.382142    8.890010    9.376772
   9 C     11.809370   13.764973    9.096908
  10 C     14.823927   12.533886    9.337348
  11 C      9.215166   15.446072    8.768332
  12 C     15.963510   12.848759    9.458514

Unit cell:
           periodic     x           y           z      points  spacing
  1. axis:    no    24.000000    0.000000    0.000000   120     0.2000
  2. axis:    no     0.000000   24.000000    0.000000   120     0.2000
  3. axis:    no     0.000000    0.000000   18.000000    88     0.2045

  Lengths:  24.000000  24.000000  18.000000
  Angles:   90.000000  90.000000  90.000000

Effective grid spacing dv^(1/3) = 0.2015

                     log10-error:    total        iterations:
           time      wfs    density  energy       fermi  poisson
iter:   1  20:49:26          +inf   -72.619857    3      5      
iter:   2  20:49:27         -1.76   -72.569480    2      2      
iter:   3  20:49:28         -1.95   -72.554917    2      2      
iter:   4  20:49:29         -2.04   -72.540214    2      2      
iter:   5  20:49:30         -2.26   -72.536246    2      2      
iter:   6  20:49:31         -2.43   -72.538081    2      2      
iter:   7  20:49:32         -2.68   -72.536306    2      2      
iter:   8  20:49:33         -2.91   -72.537727    2      1      
iter:   9  20:49:34         -3.12   -72.537102    2      1      
iter:  10  20:49:34         -3.20   -72.538215    2      1      
iter:  11  20:49:35         -3.43   -72.536958    2      1      
iter:  12  20:49:36         -3.55   -72.536338    2      1      
iter:  13  20:49:37         -3.64   -72.536811    2      1      
iter:  14  20:49:38         -3.80   -72.536573    1      1      
iter:  15  20:49:38         -4.00   -72.536172    2      1      

Converged after 15 iterations.

Dipole moment: (-0.309655, -0.276966, -0.010586) |e|*Ang

Energy contributions relative to reference atoms: (reference = -13359.165501)

Kinetic:       +101.048664
Potential:      -86.573638
External:        +0.000000
XC:             -88.394699
Entropy (-ST):   -0.099738
Local:           +1.433371
--------------------------
Free energy:    -72.586041
Extrapolated:   -72.536172

Fermi level: -5.72130

 Band  Eigenvalues  Occupancy
    0    -29.16750    2.00000
    1    -24.82742    2.00000
    2    -23.50346    2.00000
    3    -21.43348    2.00000
    4    -19.40515    2.00000
    5    -18.44545    2.00000
    6    -18.07150    2.00000
    7    -17.52126    2.00000
    8    -13.90252    2.00000
    9    -13.73497    2.00000
   10    -12.83198    2.00000
   11    -12.05210    2.00000
   12    -11.91018    2.00000
   13    -11.17334    2.00000
   14    -10.92773    2.00000
   15    -10.61304    2.00000
   16     -9.57263    2.00000
   17     -9.48599    2.00000
   18     -8.68332    2.00000
   19     -8.44951    2.00000
   20     -8.43627    2.00000
   21     -7.54647    2.00000
   22     -6.94515    1.99999
   23     -6.47271    1.99891
   24     -6.11024    1.95991
   25     -6.05588    1.93193
   26     -5.40628    0.08216
   27     -5.28346    0.02478
   28     -5.04187    0.00224
   29     -4.71302    0.00008
   30     -3.94575    0.00000
   31     -3.65119    0.00000
   32     -2.66475    0.00000
   33     -1.87588    0.00000
   34     -0.91766    0.00000
   35     -0.25148    0.00000
   36      0.04337    0.00000
   37      0.17657    0.00000
   38      0.30841    0.00000
   39      0.58371    0.00000
   40      1.66247    0.00000
   41      3.05902    0.00000
   42      3.53523    0.00000
   43      5.05728    0.00000
   44      5.79199    0.00000
   45      6.67394    0.00000
   46      7.07033    0.00000
   47      7.27760    0.00000
   48      7.62808    0.00000
   49      8.07205    0.00000
   50      8.29506    0.00000
   51      8.33365    0.00000
   52      8.39299    0.00000
   53      8.90439    0.00000
   54      9.01445    0.00000
   55      9.08896    0.00000
   56      9.34643    0.00000
   57      9.52743    0.00000
   58      9.66678    0.00000
   59      9.98578    0.00000
   60     10.02009    0.00000
   61     10.35485    0.00000
   62     10.37896    0.00000
   63     10.58335    0.00000
   64     11.23126    0.00000
   65     11.33775    0.00000
   66     11.42454    0.00000
   67     11.65846    0.00000
   68     11.68428    0.00000
   69     11.77136    0.00000
   70     11.92262    0.00000
   71     12.03218    0.00000
   72     12.08706    0.00000
   73     12.62570    0.00000
   74     12.70778    0.00000
   75     12.88498    0.00000


Forces in eV/Ang:
  0 C    17.81528   10.39221    2.85445
  1 C    -7.36454    9.12845   -2.80874
  2 C    -0.62730    0.27704    0.12723
  3 C   -19.23215   -7.92992   -2.99165
  4 C    -1.43616    0.81625   -0.13623
  5 C    10.58471    7.31146   -0.77573
  6 C    -2.58774    1.69053   -0.21526
  7 C    -5.62359  -14.15262    2.76200
  8 C     4.35132   -3.35689    0.87043
  9 C     3.30410   -2.24245    0.31794
 10 C   -13.32335   -2.73540   -1.35828
 11 C     1.99486   -2.27637    0.13740
 12 C    12.00105    3.01400    1.27843

System changes: positions 

Initializing position-dependent things.

Density initialized from wave functions
                .----------------------------------------------------------.  
               /|                                                          |  
              / |                                                          |  
             /  |                                                          |  
            /   |                                                          |  
           /    |                                                          |  
          /     |                                                          |  
         /      |                                                          |  
        /       |                                                          |  
       /        |                                                          |  
      /         |                                                          |  
     /          |                                                          |  
    /           |                                                          |  
   /            |                                                          |  
  /             |                                                          |  
 *              |                                                          |  
 |              |                                                          |  
 |              |                C C  CC        C                          |  
 |              |                          C C                             |  
 |              |               C  C                                       |  
 |              |           C   C  C  C                                    |  
 |              |                                                          |  
 |              .----------------------------------------------------------.  
 |             /                                                          /   
 |            /                                                          /    
 |           /                                                          /     
 |          /                                                          /      
 |         /                                                          /       
 |        /                                                          /        
 |       /                                                          /         
 |      /                                                          /          
 |     /                                                          /           
 |    /                                                          /            
 |   /                                                          /             
 |  /                                                          /              
 | /                                                          /               
 |/                                                          /                
 *----------------------------------------------------------*                 

Positions:
   0 C     11.364570   15.044792    9.031033
   1 C      9.791894   10.449670    8.977891
   2 C      8.767601    9.310281    9.040445
   3 C     10.339344   14.507882    8.862558
   4 C     12.551308    9.562333    9.260109
   5 C     11.017263   10.322847    9.095034
   6 C     13.630444   13.144515    9.190403
   7 C     10.103765    9.187290    9.292922
   8 C     11.382838    8.883746    9.379020
   9 C     11.822661   13.752193    9.097088
  10 C     14.813934   12.536292    9.336420
  11 C      9.219874   15.437508    8.768468
  12 C     15.966221   12.847331    9.458243

Unit cell:
           periodic     x           y           z      points  spacing
  1. axis:    no    24.000000    0.000000    0.000000   120     0.2000
  2. axis:    no     0.000000   24.000000    0.000000   120     0.2000
  3. axis:    no     0.000000    0.000000   18.000000    88     0.2045

  Lengths:  24.000000  24.000000  18.000000
  Angles:   90.000000  90.000000  90.000000

Effective grid spacing dv^(1/3) = 0.2015

                     log10-error:    total        iterations:
           time      wfs    density  energy       fermi  poisson
iter:   1  20:49:40          +inf   -73.893940    3      5      
iter:   2  20:49:41         -1.82   -73.855222    3      2      
iter:   3  20:49:42         -1.98   -73.837768    3      2      
iter:   4  20:49:43         -2.09   -73.829190    3      2      
iter:   5  20:49:44         -2.29   -73.824541    2      2      
iter:   6  20:49:45         -2.45   -73.824349    2      2      
iter:   7  20:49:46         -2.71   -73.824897    2      2      
iter:   8  20:49:47         -2.96   -73.825697    2      1      
iter:   9  20:49:47         -3.08   -73.825636    2      1      
iter:  10  20:49:48         -3.17   -73.827504    2      1      
iter:  11  20:49:49         -3.45   -73.825791    2      1      
iter:  12  20:49:50         -3.35   -73.824415    2      1      
iter:  13  20:49:51         -3.56   -73.824836    2      1      
iter:  14  20:49:52         -3.67   -73.824702    2      1      
iter:  15  20:49:52         -3.94   -73.824469    2      1      
iter:  16  20:49:53         -3.98   -73.824331    2      1      
iter:  17  20:49:54         -4.00   -73.824301    2      1      

Converged after 17 iterations.

Dipole moment: (-0.324914, -0.295354, -0.009071) |e|*Ang

Energy contributions relative to reference atoms: (reference = -13359.165501)

[...]
  /             |                                                          |  
 *              |                                   C                      |  
 |              |                          C  C  C                         |  
 |              |                   C  C                                   |  
 |              |                  CC                                      |  
 |              |               C    C                                     |  
 |              |             C  C  C                                      |  
 |              |                                                          |  
 |              .----------------------------------------------------------.  
 |             /                                                          /   
 |            /                                                          /    
 |           /                                                          /     
 |          /                                                          /      
 |         /                                                          /       
 |        /                                                          /        
 |       /                                                          /         
 |      /                                                          /          
 |     /                                                          /           
 |    /                                                          /            
 |   /                                                          /             
 |  /                                                          /              
 | /                                                          /               
 |/                                                          /                
 *----------------------------------------------------------*                 

Positions:
   0 C     12.164097   13.531391    9.738115
   1 C     11.049919   11.085131    9.502257
   2 C      9.935713   10.302965    9.125614
   3 C     10.761625   13.833833    9.482797
   4 C     12.128205    8.749418    9.754998
   5 C     12.029890   10.096200    9.775844
   6 C     14.722873   13.946098   10.117152
   7 C      9.588416    9.011004    8.955982
   8 C     10.838363    8.621008    9.341750
   9 C     13.467298   13.758600    9.942721
  10 C     16.014484   14.152596   10.296614
  11 C     11.162378   12.510621    9.557013
  12 C     17.290991   14.385225   10.512126

Unit cell:
           periodic     x           y           z      points  spacing
  1. axis:    no    24.000000    0.000000    0.000000   120     0.2000
  2. axis:    no     0.000000   24.000000    0.000000   120     0.2000
  3. axis:    no     0.000000    0.000000   18.000000    88     0.2045

  Lengths:  24.000000  24.000000  18.000000
  Angles:   90.000000  90.000000  90.000000

Effective grid spacing dv^(1/3) = 0.2015

                     log10-error:    total        iterations:
           time      wfs    density  energy       fermi  poisson
iter:   1  21:55:38          +inf   -92.524492    2      5      
iter:   2  21:55:39         -2.76   -92.522557    2      1      
iter:   3  21:55:40         -2.83   -92.521728    2      1      
iter:   4  21:55:41         -2.90   -92.522456    2      2      
iter:   5  21:55:42         -3.14   -92.520860    2      1      
iter:   6  21:55:43         -2.92   -92.522907    2      1      
iter:   7  21:55:44         -2.58   -92.523637    2      1      
iter:   8  21:55:45         -2.81   -92.523279    2      1      
iter:   9  21:55:45         -3.54   -92.522537    2      1      
iter:  10  21:55:46         -3.76   -92.522482    2      1      
iter:  11  21:55:47         -3.81   -92.522490    2      1      
iter:  12  21:55:48         -3.52   -92.522336    2      1      
iter:  13  21:55:49         -4.04   -92.522499    2      1      

Converged after 13 iterations.

Dipole moment: (-0.749039, -0.293781, -0.109779) |e|*Ang

Energy contributions relative to reference atoms: (reference = -13359.165501)

Kinetic:        +55.839766
Potential:      -61.084371
External:        +0.000000
XC:             -88.665735
Entropy (-ST):   -0.271924
Local:           +1.523803
--------------------------
Free energy:    -92.658461
Extrapolated:   -92.522499

Fermi level: -6.12989

 Band  Eigenvalues  Occupancy
    0    -24.66013    2.00000
    1    -24.27320    2.00000
    2    -21.24792    2.00000
    3    -20.94156    2.00000
    4    -20.78816    2.00000
    5    -19.50212    2.00000
    6    -17.67288    2.00000
    7    -16.64742    2.00000
    8    -15.62638    2.00000
    9    -15.40350    2.00000
   10    -14.56295    2.00000
   11    -12.70232    2.00000
   12    -11.93502    2.00000
   13    -11.79144    2.00000
   14    -11.01612    2.00000
   15    -10.91638    2.00000
   16    -10.18641    2.00000
   17     -9.57225    2.00000
   18     -9.42661    2.00000
   19     -8.17839    2.00000
   20     -8.07886    2.00000
   21     -7.81644    2.00000
   22     -7.38620    1.99999
   23     -6.94520    1.99942
   24     -6.77500    1.99685
   25     -6.17125    1.20391
   26     -6.08930    0.79983
   27     -4.42488    0.00000
   28     -3.66273    0.00000
   29     -3.38920    0.00000
   30     -2.73586    0.00000
   31     -2.43218    0.00000
   32     -1.95258    0.00000
   33     -1.11395    0.00000
   34     -0.66596    0.00000
   35      1.35832    0.00000
   36      1.95428    0.00000
   37      2.06008    0.00000
   38      2.97765    0.00000
   39      3.21282    0.00000
   40      3.64694    0.00000
   41      4.16959    0.00000
   42      4.82682    0.00000
   43      6.02579    0.00000
   44      6.21217    0.00000
   45      6.81138    0.00000
   46      7.17904    0.00000
   47      7.50019    0.00000
   48      7.78401    0.00000
   49      7.96084    0.00000
   50      8.44998    0.00000
   51      8.62341    0.00000
   52      8.70211    0.00000
   53      8.77842    0.00000
   54      9.01116    0.00000
   55      9.17435    0.00000
   56      9.35195    0.00000
   57      9.56952    0.00000
   58      9.69854    0.00000
   59      9.74239    0.00000
   60     10.17924    0.00000
   61     10.35337    0.00000
   62     10.66731    0.00000
   63     10.91178    0.00000
   64     11.32209    0.00000
   65     11.44324    0.00000
   66     11.69792    0.00000
   67     12.01112    0.00000
   68     12.26197    0.00000
   69     12.52834    0.00000
   70     12.82209    0.00000
   71     13.02698    0.00000
   72     13.25686    0.00000
   73     13.43853    0.00000
   74     13.51892    0.00000
   75     13.76830    0.00000


Forces in eV/Ang:
  0 C     0.16474    0.15005   -0.01551
  1 C     0.00624   -0.01802    0.00053
  2 C     0.00468    0.03047    0.00630
  3 C    -0.11226    0.09643    0.00100
  4 C     0.03269   -0.02728    0.01349
  5 C    -0.02246    0.01187   -0.02456
  6 C    -0.06019   -0.00939   -0.02633
  7 C     0.04800   -0.03392    0.02971
  8 C    -0.07311   -0.00060   -0.01256
  9 C    -0.10692   -0.04461    0.02071
 10 C    -0.01364    0.00555    0.02405
 11 C    -0.00243   -0.15704   -0.01086
 12 C     0.09565    0.00409   -0.00025

System changes: positions 

Initializing position-dependent things.

Density initialized from wave functions
                .----------------------------------------------------------.  
               /|                                                          |  
              / |                                                          |  
             /  |                                                          |  
            /   |                                                          |  
           /    |                                                          |  
          /     |                                                          |  
         /      |                                                          |  
        /       |                                                          |  
       /        |                                                          |  
      /         |                                                          |  
     /          |                                                          |  
    /           |                                                          |  
   /            |                                                          |  
  /             |                                                          |  
 *              |                                   C                      |  
 |              |                          C  C  C                         |  
 |              |                   C  C                                   |  
 |              |                  C                                       |  
 |              |               C    C                                     |  
 |              |             C  C  C                                      |  
 |              |                                                          |  
 |              .----------------------------------------------------------.  
 |             /                                                          /   
 |            /                                                          /    
 |           /                                                          /     
 |          /                                                          /      
 |         /                                                          /       
 |        /                                                          /        
 |       /                                                          /         
 |      /                                                          /          
 |     /                                                          /           
 |    /                                                          /            
 |   /                                                          /             
 |  /                                                          /              
 | /                                                          /               
 |/                                                          /                
 *----------------------------------------------------------*                 

Positions:
   0 C     12.158543   13.533828    9.738784
   1 C     11.046834   11.084284    9.499659
   2 C      9.934715   10.300167    9.120066
   3 C     10.753325   13.837425    9.501137
   4 C     12.131202    8.749558    9.755113
   5 C     12.027873   10.096344    9.774426
   6 C     14.718298   13.946444   10.105310
   7 C      9.592170    9.006202    8.950292
   8 C     10.840785    8.618296    9.340355
   9 C     13.461804   13.755849    9.940581
  10 C     16.010503   14.155742   10.282930
  11 C     11.155323   12.510933    9.558816
  12 C     17.288375   14.388389   10.496510

Unit cell:
           periodic     x           y           z      points  spacing
  1. axis:    no    24.000000    0.000000    0.000000   120     0.2000
  2. axis:    no     0.000000   24.000000    0.000000   120     0.2000
  3. axis:    no     0.000000    0.000000   18.000000    88     0.2045

  Lengths:  24.000000  24.000000  18.000000
  Angles:   90.000000  90.000000  90.000000

Effective grid spacing dv^(1/3) = 0.2015

                     log10-error:    total        iterations:
           time      wfs    density  energy       fermi  poisson
iter:   1  21:55:51          +inf   -92.522971    2      5      
iter:   2  21:55:52         -2.73   -92.523902    2      1      
iter:   3  21:55:53         -3.10   -92.524182    2      1      
iter:   4  21:55:53         -3.12   -92.525245    2      1      
iter:   5  21:55:54         -2.97   -92.527954    2      1      
iter:   6  21:55:55         -2.56   -92.524530    2      1      
iter:   7  21:55:56         -3.19   -92.523644    2      1      
iter:   8  21:55:57         -3.35   -92.524549    2      1      
iter:   9  21:55:58         -3.10   -92.524026    2      1      
iter:  10  21:55:58         -3.61   -92.523671    2      1      
iter:  11  21:55:59         -3.12   -92.523685    2      1      
iter:  12  21:56:00         -4.03   -92.523398    2      1      

Converged after 12 iterations.

Dipole moment: (-0.745342, -0.288217, -0.110951) |e|*Ang

Energy contributions relative to reference atoms: (reference = -13359.165501)

Kinetic:        +55.354031
Potential:      -60.707608
External:        +0.000000
XC:             -88.541528
Entropy (-ST):   -0.272084
Local:           +1.507750
--------------------------
Free energy:    -92.659440
Extrapolated:   -92.523398

Fermi level: -6.12892

 Band  Eigenvalues  Occupancy
    0    -24.64435    2.00000
    1    -24.25786    2.00000
    2    -21.24985    2.00000
    3    -20.92976    2.00000
    4    -20.78323    2.00000
    5    -19.50363    2.00000
    6    -17.67625    2.00000
    7    -16.64551    2.00000
    8    -15.62281    2.00000
    9    -15.40034    2.00000
   10    -14.55764    2.00000
   11    -12.69098    2.00000
   12    -11.93422    2.00000
   13    -11.77677    2.00000
   14    -11.01097    2.00000
   15    -10.92021    2.00000
   16    -10.18358    2.00000
   17     -9.56989    2.00000
   18     -9.42993    2.00000
   19     -8.17765    2.00000
   20     -8.07143    2.00000
   21     -7.81001    2.00000
   22     -7.38974    1.99999
   23     -6.94664    1.99944
   24     -6.78265    1.99711
   25     -6.16937    1.19956
   26     -6.08918    0.80390
   27     -4.42998    0.00000
   28     -3.65777    0.00000
   29     -3.39569    0.00000
   30     -2.74311    0.00000
   31     -2.43367    0.00000
   32     -1.95042    0.00000
   33     -1.12149    0.00000
   34     -0.67234    0.00000
   35      1.33808    0.00000
   36      1.92735    0.00000
   37      2.06715    0.00000
   38      2.96075    0.00000
   39      3.19534    0.00000
   40      3.64685    0.00000
   41      4.16962    0.00000
   42      4.81110    0.00000
   43      6.01122    0.00000
   44      6.19433    0.00000
   45      6.80669    0.00000
   46      7.18164    0.00000
   47      7.49226    0.00000
   48      7.78536    0.00000
   49      7.96456    0.00000
   50      8.44684    0.00000
   51      8.62415    0.00000
   52      8.70075    0.00000
   53      8.77556    0.00000
   54      9.00647    0.00000
   55      9.17603    0.00000
   56      9.35096    0.00000
   57      9.56799    0.00000
   58      9.70227    0.00000
   59      9.73864    0.00000
   60     10.17851    0.00000
   61     10.34286    0.00000
   62     10.66153    0.00000
   63     10.90845    0.00000
   64     11.31957    0.00000
   65     11.43555    0.00000
   66     11.70101    0.00000
   67     11.99684    0.00000
   68     12.25990    0.00000
   69     12.52423    0.00000
   70     12.81648    0.00000
   71     13.02494    0.00000
   72     13.25242    0.00000
   73     13.43455    0.00000
   74     13.51848    0.00000
   75     13.76541    0.00000


Forces in eV/Ang:
  0 C     0.05360    0.06777   -0.00779
  1 C     0.00004   -0.00593   -0.00727
  2 C    -0.03578    0.03067   -0.01699
  3 C    -0.02695   -0.05557    0.03359
  4 C     0.03843   -0.03754    0.01776
  5 C     0.03268    0.01768   -0.00348
  6 C    -0.00969   -0.00061    0.01577
  7 C    -0.01826   -0.02357    0.00578
  8 C    -0.00294    0.00063   -0.00386
  9 C    -0.03398   -0.00782    0.00432
 10 C    -0.00377    0.00499    0.02968
 11 C     0.01646   -0.04580   -0.01422
 12 C     0.03112   -0.00410   -0.01441

Timing:                                       incl.     excl.
--------------------------------------------------------------------
Basic WFS set positions:                      0.187     0.162   0.0% |
 Redistribute:                                0.025     0.025   0.0% |
Basis functions set positions:                6.448     6.448   0.1% |
Forces:                                     241.816   211.090   4.7% |-|
 LCAO forces:                                30.726     0.743   0.0% |
  Atomic Hamiltonian force:                   0.003     0.003   0.0% |
  Initial:                                    0.352     0.005   0.0% |
   Get density matrix:                        0.347     0.347   0.0% |
  Paw correction:                             0.016     0.016   0.0% |
  Potential:                                  0.346     0.346   0.0% |
  TCI derivative:                            29.262    29.262   0.7% |
  Wait for sum:                               0.004     0.004   0.0% |
LCAO WFS Initialize:                        319.632     0.052   0.0% |
 Density initialized from wave functions:    58.516    58.291   1.3% ||
  Calculate density matrix:                   0.215     0.215   0.0% |
  Construct density:                          0.004     0.004   0.0% |
  Symmetrize density:                         0.006     0.006   0.0% |
 Hamiltonian:                               261.063     0.061   0.0% |
  Atomic:                                     0.117     0.115   0.0% |
   XC Correction:                             0.002     0.002   0.0% |
  Calculate atomic Hamiltonians:              0.123     0.123   0.0% |
  Communicate:                               21.996    21.996   0.5% |
  Hartree integrate/restrict:                 4.387     4.387   0.1% |
  Initialize Hamiltonian:                     0.003     0.003   0.0% |
  Poisson:                                  144.834   144.834   3.3% ||
  XC 3D grid:                                88.412    88.412   2.0% ||
  vbar:                                       1.130     1.130   0.0% |
Redistribute:                                 0.068     0.068   0.0% |
SCF-cycle:                                 3536.603     2.387   0.1% |
 Density:                                   792.847     0.176   0.0% |
  Atomic density matrices:                  712.317   712.317  16.0% |-----|
  Mix:                                       75.190    75.190   1.7% ||
  Multipole moments:                          1.196     1.196   0.0% |
  Normalize:                                  0.762     0.762   0.0% |
  Pseudo density:                             3.206     1.383   0.0% |
   Calculate density matrix:                  1.693     1.693   0.0% |
   Construct density:                         0.045     0.045   0.0% |
   Symmetrize density:                        0.086     0.086   0.0% |
 Hamiltonian:                              2018.439     0.752   0.0% |
  Atomic:                                     1.544     1.517   0.0% |
   XC Correction:                             0.027     0.027   0.0% |
  Calculate atomic Hamiltonians:              1.604     1.604   0.0% |
  Communicate:                              290.271   290.271   6.5% |--|
  Hartree integrate/restrict:                57.933    57.933   1.3% ||
  Poisson:                                  483.782   483.782  10.9% |---|
  XC 3D grid:                              1166.859  1166.859  26.2% |---------|
  vbar:                                      15.696    15.696   0.4% |
 LCAO eigensolver:                          722.929     0.558   0.0% |
  Calculate projections:                      0.049     0.049   0.0% |
  DenseAtomicCorrection:                      0.184     0.184   0.0% |
  Distribute overlap matrix:                683.668   683.668  15.4% |-----|
  Orbital Layouts:                           37.978    37.978   0.9% |
  Potential matrix:                           0.492     0.492   0.0% |
Set symmetry:                                 0.038     0.038   0.0% |
TCI: Calculate S, T, P:                       1.986     1.986   0.0% |
TCI: Evaluate splines:                        0.113     0.113   0.0% |
Other:                                      342.771   342.771   7.7% |--|
--------------------------------------------------------------------
Total:                                               4449.661 100.0%

Memory usage: 204.94 MiB
Date: Thu Mar 22 22:01:26 2018
